V -t * -v 1.0a5 -a 0
A -t * -n 1 -p 0 -o 0x7fffffff -c 30 -a 1
A -t * -h 1 -m 1073741823 -s 0
c -t * -i 1 -n Blue
c -t * -i 2 -n Red
c -t * -i 3 -n Yellow
n -t * -a 0 -s 0 -S UP -v circle -c black -i black
n -t * -a 1 -s 1 -S UP -v circle -c black -i black
n -t * -a 2 -s 2 -S UP -v circle -c black -i black
n -t * -a 3 -s 3 -S UP -v circle -c black -i black
l -t * -s 0 -d 1 -S UP -r 2000000 -D 0.01 -c black -o right
l -t * -s 1 -d 2 -S UP -r 2000000 -D 0.01 -c black -o down
l -t * -s 2 -d 3 -S UP -r 2000000 -D 0.01 -c black -o left
l -t * -s 3 -d 0 -S UP -r 2000000 -D 0.01 -c black -o up
+ -t 0.2 -s 0 -d 1 -p tcp -e 40 -c 1 -i 0 -a 1 -x {0.0 2.0 0 ------- null}
- -t 0.2 -s 0 -d 1 -p tcp -e 40 -c 1 -i 0 -a 1 -x {0.0 2.0 0 ------- null}
h -t 0.2 -s 0 -d 1 -p tcp -e 40 -c 1 -i 0 -a 1 -x {0.0 2.0 -1 ------- null}
+ -t 0.2 -s 1 -d 0 -p tcp -e 40 -c 2 -i 1 -a 2 -x {1.0 3.0 0 ------- null}
- -t 0.2 -s 1 -d 0 -p tcp -e 40 -c 2 -i 1 -a 2 -x {1.0 3.0 0 ------- null}
h -t 0.2 -s 1 -d 0 -p tcp -e 40 -c 2 -i 1 -a 2 -x {1.0 3.0 -1 ------- null}
r -t 0.21016 -s 0 -d 1 -p tcp -e 40 -c 1 -i 0 -a 1 -x {0.0 2.0 0 ------- null}
+ -t 0.21016 -s 1 -d 2 -p tcp -e 40 -c 1 -i 0 -a 1 -x {0.0 2.0 0 ------- null}
- -t 0.21016 -s 1 -d 2 -p tcp -e 40 -c 1 -i 0 -a 1 -x {0.0 2.0 0 ------- null}
h -t 0.21016 -s 1 -d 2 -p tcp -e 40 -c 1 -i 0 -a 1 -x {0.0 2.0 -1 ------- null}
r -t 0.21016 -s 1 -d 0 -p tcp -e 40 -c 2 -i 1 -a 2 -x {1.0 3.0 0 ------- null}
+ -t 0.21016 -s 0 -d 3 -p tcp -e 40 -c 2 -i 1 -a 2 -x {1.0 3.0 0 ------- null}
- -t 0.21016 -s 0 -d 3 -p tcp -e 40 -c 2 -i 1 -a 2 -x {1.0 3.0 0 ------- null}
h -t 0.21016 -s 0 -d 3 -p tcp -e 40 -c 2 -i 1 -a 2 -x {1.0 3.0 -1 ------- null}
r -t 0.22032 -s 1 -d 2 -p tcp -e 40 -c 1 -i 0 -a 1 -x {0.0 2.0 0 ------- null}
+ -t 0.22032 -s 2 -d 1 -p ack -e 40 -c 1 -i 2 -a 1 -x {2.0 0.0 0 ------- null}
- -t 0.22032 -s 2 -d 1 -p ack -e 40 -c 1 -i 2 -a 1 -x {2.0 0.0 0 ------- null}
h -t 0.22032 -s 2 -d 1 -p ack -e 40 -c 1 -i 2 -a 1 -x {2.0 0.0 -1 ------- null}
r -t 0.22032 -s 0 -d 3 -p tcp -e 40 -c 2 -i 1 -a 2 -x {1.0 3.0 0 ------- null}
+ -t 0.22032 -s 3 -d 0 -p ack -e 40 -c 2 -i 3 -a 2 -x {3.0 1.0 0 ------- null}
- -t 0.22032 -s 3 -d 0 -p ack -e 40 -c 2 -i 3 -a 2 -x {3.0 1.0 0 ------- null}
h -t 0.22032 -s 3 -d 0 -p ack -e 40 -c 2 -i 3 -a 2 -x {3.0 1.0 -1 ------- null}
r -t 0.23048 -s 2 -d 1 -p ack -e 40 -c 1 -i 2 -a 1 -x {2.0 0.0 0 ------- null}
+ -t 0.23048 -s 1 -d 0 -p ack -e 40 -c 1 -i 2 -a 1 -x {2.0 0.0 0 ------- null}
- -t 0.23048 -s 1 -d 0 -p ack -e 40 -c 1 -i 2 -a 1 -x {2.0 0.0 0 ------- null}
h -t 0.23048 -s 1 -d 0 -p ack -e 40 -c 1 -i 2 -a 1 -x {2.0 0.0 -1 ------- null}
r -t 0.23048 -s 3 -d 0 -p ack -e 40 -c 2 -i 3 -a 2 -x {3.0 1.0 0 ------- null}
+ -t 0.23048 -s 0 -d 1 -p ack -e 40 -c 2 -i 3 -a 2 -x {3.0 1.0 0 ------- null}
- -t 0.23048 -s 0 -d 1 -p ack -e 40 -c 2 -i 3 -a 2 -x {3.0 1.0 0 ------- null}
h -t 0.23048 -s 0 -d 1 -p ack -e 40 -c 2 -i 3 -a 2 -x {3.0 1.0 -1 ------- null}
r -t 0.24064 -s 1 -d 0 -p ack -e 40 -c 1 -i 2 -a 1 -x {2.0 0.0 0 ------- null}
+ -t 0.24064 -s 0 -d 1 -p tcp -e 1040 -c 1 -i 4 -a 1 -x {0.0 2.0 1 ------- null}
- -t 0.24064 -s 0 -d 1 -p tcp -e 1040 -c 1 -i 4 -a 1 -x {0.0 2.0 1 ------- null}
h -t 0.24064 -s 0 -d 1 -p tcp -e 1040 -c 1 -i 4 -a 1 -x {0.0 2.0 -1 ------- null}
+ -t 0.24064 -s 0 -d 1 -p tcp -e 1040 -c 1 -i 5 -a 1 -x {0.0 2.0 2 ------- null}
r -t 0.24064 -s 0 -d 1 -p ack -e 40 -c 2 -i 3 -a 2 -x {3.0 1.0 0 ------- null}
+ -t 0.24064 -s 1 -d 0 -p tcp -e 1040 -c 2 -i 6 -a 2 -x {1.0 3.0 1 ------- null}
- -t 0.24064 -s 1 -d 0 -p tcp -e 1040 -c 2 -i 6 -a 2 -x {1.0 3.0 1 ------- null}
h -t 0.24064 -s 1 -d 0 -p tcp -e 1040 -c 2 -i 6 -a 2 -x {1.0 3.0 -1 ------- null}
+ -t 0.24064 -s 1 -d 0 -p tcp -e 1040 -c 2 -i 7 -a 2 -x {1.0 3.0 2 ------- null}
- -t 0.2448 -s 0 -d 1 -p tcp -e 1040 -c 1 -i 5 -a 1 -x {0.0 2.0 2 ------- null}
h -t 0.2448 -s 0 -d 1 -p tcp -e 1040 -c 1 -i 5 -a 1 -x {0.0 2.0 -1 ------- null}
- -t 0.2448 -s 1 -d 0 -p tcp -e 1040 -c 2 -i 7 -a 2 -x {1.0 3.0 2 ------- null}
h -t 0.2448 -s 1 -d 0 -p tcp -e 1040 -c 2 -i 7 -a 2 -x {1.0 3.0 -1 ------- null}
r -t 0.2548 -s 0 -d 1 -p tcp -e 1040 -c 1 -i 4 -a 1 -x {0.0 2.0 1 ------- null}
+ -t 0.2548 -s 1 -d 2 -p tcp -e 1040 -c 1 -i 4 -a 1 -x {0.0 2.0 1 ------- null}
- -t 0.2548 -s 1 -d 2 -p tcp -e 1040 -c 1 -i 4 -a 1 -x {0.0 2.0 1 ------- null}
h -t 0.2548 -s 1 -d 2 -p tcp -e 1040 -c 1 -i 4 -a 1 -x {0.0 2.0 -1 ------- null}
r -t 0.2548 -s 1 -d 0 -p tcp -e 1040 -c 2 -i 6 -a 2 -x {1.0 3.0 1 ------- null}
+ -t 0.2548 -s 0 -d 3 -p tcp -e 1040 -c 2 -i 6 -a 2 -x {1.0 3.0 1 ------- null}
- -t 0.2548 -s 0 -d 3 -p tcp -e 1040 -c 2 -i 6 -a 2 -x {1.0 3.0 1 ------- null}
h -t 0.2548 -s 0 -d 3 -p tcp -e 1040 -c 2 -i 6 -a 2 -x {1.0 3.0 -1 ------- null}
r -t 0.25896 -s 0 -d 1 -p tcp -e 1040 -c 1 -i 5 -a 1 -x {0.0 2.0 2 ------- null}
+ -t 0.25896 -s 1 -d 2 -p tcp -e 1040 -c 1 -i 5 -a 1 -x {0.0 2.0 2 ------- null}
r -t 0.25896 -s 1 -d 0 -p tcp -e 1040 -c 2 -i 7 -a 2 -x {1.0 3.0 2 ------- null}
+ -t 0.25896 -s 0 -d 3 -p tcp -e 1040 -c 2 -i 7 -a 2 -x {1.0 3.0 2 ------- null}
- -t 0.25896 -s 1 -d 2 -p tcp -e 1040 -c 1 -i 5 -a 1 -x {0.0 2.0 2 ------- null}
h -t 0.25896 -s 1 -d 2 -p tcp -e 1040 -c 1 -i 5 -a 1 -x {0.0 2.0 -1 ------- null}
- -t 0.25896 -s 0 -d 3 -p tcp -e 1040 -c 2 -i 7 -a 2 -x {1.0 3.0 2 ------- null}
h -t 0.25896 -s 0 -d 3 -p tcp -e 1040 -c 2 -i 7 -a 2 -x {1.0 3.0 -1 ------- null}
r -t 0.26896 -s 1 -d 2 -p tcp -e 1040 -c 1 -i 4 -a 1 -x {0.0 2.0 1 ------- null}
+ -t 0.26896 -s 2 -d 1 -p ack -e 40 -c 1 -i 8 -a 1 -x {2.0 0.0 1 ------- null}
- -t 0.26896 -s 2 -d 1 -p ack -e 40 -c 1 -i 8 -a 1 -x {2.0 0.0 1 ------- null}
h -t 0.26896 -s 2 -d 1 -p ack -e 40 -c 1 -i 8 -a 1 -x {2.0 0.0 -1 ------- null}
r -t 0.26896 -s 0 -d 3 -p tcp -e 1040 -c 2 -i 6 -a 2 -x {1.0 3.0 1 ------- null}
+ -t 0.26896 -s 3 -d 0 -p ack -e 40 -c 2 -i 9 -a 2 -x {3.0 1.0 1 ------- null}
- -t 0.26896 -s 3 -d 0 -p ack -e 40 -c 2 -i 9 -a 2 -x {3.0 1.0 1 ------- null}
h -t 0.26896 -s 3 -d 0 -p ack -e 40 -c 2 -i 9 -a 2 -x {3.0 1.0 -1 ------- null}
r -t 0.27312 -s 1 -d 2 -p tcp -e 1040 -c 1 -i 5 -a 1 -x {0.0 2.0 2 ------- null}
+ -t 0.27312 -s 2 -d 1 -p ack -e 40 -c 1 -i 10 -a 1 -x {2.0 0.0 2 ------- null}
- -t 0.27312 -s 2 -d 1 -p ack -e 40 -c 1 -i 10 -a 1 -x {2.0 0.0 2 ------- null}
h -t 0.27312 -s 2 -d 1 -p ack -e 40 -c 1 -i 10 -a 1 -x {2.0 0.0 -1 ------- null}
r -t 0.27312 -s 0 -d 3 -p tcp -e 1040 -c 2 -i 7 -a 2 -x {1.0 3.0 2 ------- null}
+ -t 0.27312 -s 3 -d 0 -p ack -e 40 -c 2 -i 11 -a 2 -x {3.0 1.0 2 ------- null}
- -t 0.27312 -s 3 -d 0 -p ack -e 40 -c 2 -i 11 -a 2 -x {3.0 1.0 2 ------- null}
h -t 0.27312 -s 3 -d 0 -p ack -e 40 -c 2 -i 11 -a 2 -x {3.0 1.0 -1 ------- null}
r -t 0.27912 -s 2 -d 1 -p ack -e 40 -c 1 -i 8 -a 1 -x {2.0 0.0 1 ------- null}
+ -t 0.27912 -s 1 -d 0 -p ack -e 40 -c 1 -i 8 -a 1 -x {2.0 0.0 1 ------- null}
- -t 0.27912 -s 1 -d 0 -p ack -e 40 -c 1 -i 8 -a 1 -x {2.0 0.0 1 ------- null}
h -t 0.27912 -s 1 -d 0 -p ack -e 40 -c 1 -i 8 -a 1 -x {2.0 0.0 -1 ------- null}
r -t 0.27912 -s 3 -d 0 -p ack -e 40 -c 2 -i 9 -a 2 -x {3.0 1.0 1 ------- null}
+ -t 0.27912 -s 0 -d 1 -p ack -e 40 -c 2 -i 9 -a 2 -x {3.0 1.0 1 ------- null}
- -t 0.27912 -s 0 -d 1 -p ack -e 40 -c 2 -i 9 -a 2 -x {3.0 1.0 1 ------- null}
h -t 0.27912 -s 0 -d 1 -p ack -e 40 -c 2 -i 9 -a 2 -x {3.0 1.0 -1 ------- null}
r -t 0.28328 -s 2 -d 1 -p ack -e 40 -c 1 -i 10 -a 1 -x {2.0 0.0 2 ------- null}
+ -t 0.28328 -s 1 -d 0 -p ack -e 40 -c 1 -i 10 -a 1 -x {2.0 0.0 2 ------- null}
- -t 0.28328 -s 1 -d 0 -p ack -e 40 -c 1 -i 10 -a 1 -x {2.0 0.0 2 ------- null}
h -t 0.28328 -s 1 -d 0 -p ack -e 40 -c 1 -i 10 -a 1 -x {2.0 0.0 -1 ------- null}
r -t 0.28328 -s 3 -d 0 -p ack -e 40 -c 2 -i 11 -a 2 -x {3.0 1.0 2 ------- null}
+ -t 0.28328 -s 0 -d 1 -p ack -e 40 -c 2 -i 11 -a 2 -x {3.0 1.0 2 ------- null}
- -t 0.28328 -s 0 -d 1 -p ack -e 40 -c 2 -i 11 -a 2 -x {3.0 1.0 2 ------- null}
h -t 0.28328 -s 0 -d 1 -p ack -e 40 -c 2 -i 11 -a 2 -x {3.0 1.0 -1 ------- null}
r -t 0.28928 -s 1 -d 0 -p ack -e 40 -c 1 -i 8 -a 1 -x {2.0 0.0 1 ------- null}
+ -t 0.28928 -s 0 -d 1 -p tcp -e 1040 -c 1 -i 12 -a 1 -x {0.0 2.0 3 ------- null}
- -t 0.28928 -s 0 -d 1 -p tcp -e 1040 -c 1 -i 12 -a 1 -x {0.0 2.0 3 ------- null}
h -t 0.28928 -s 0 -d 1 -p tcp -e 1040 -c 1 -i 12 -a 1 -x {0.0 2.0 -1 ------- null}
+ -t 0.28928 -s 0 -d 1 -p tcp -e 1040 -c 1 -i 13 -a 1 -x {0.0 2.0 4 ------- null}
r -t 0.28928 -s 0 -d 1 -p ack -e 40 -c 2 -i 9 -a 2 -x {3.0 1.0 1 ------- null}
+ -t 0.28928 -s 1 -d 0 -p tcp -e 1040 -c 2 -i 14 -a 2 -x {1.0 3.0 3 ------- null}
- -t 0.28928 -s 1 -d 0 -p tcp -e 1040 -c 2 -i 14 -a 2 -x {1.0 3.0 3 ------- null}
h -t 0.28928 -s 1 -d 0 -p tcp -e 1040 -c 2 -i 14 -a 2 -x {1.0 3.0 -1 ------- null}
+ -t 0.28928 -s 1 -d 0 -p tcp -e 1040 -c 2 -i 15 -a 2 -x {1.0 3.0 4 ------- null}
r -t 0.29344 -s 1 -d 0 -p ack -e 40 -c 1 -i 10 -a 1 -x {2.0 0.0 2 ------- null}
+ -t 0.29344 -s 0 -d 1 -p tcp -e 1040 -c 1 -i 16 -a 1 -x {0.0 2.0 5 ------- null}
+ -t 0.29344 -s 0 -d 1 -p tcp -e 1040 -c 1 -i 17 -a 1 -x {0.0 2.0 6 ------- null}
r -t 0.29344 -s 0 -d 1 -p ack -e 40 -c 2 -i 11 -a 2 -x {3.0 1.0 2 ------- null}
+ -t 0.29344 -s 1 -d 0 -p tcp -e 1040 -c 2 -i 18 -a 2 -x {1.0 3.0 5 ------- null}
+ -t 0.29344 -s 1 -d 0 -p tcp -e 1040 -c 2 -i 19 -a 2 -x {1.0 3.0 6 ------- null}
- -t 0.29344 -s 0 -d 1 -p tcp -e 1040 -c 1 -i 13 -a 1 -x {0.0 2.0 4 ------- null}
h -t 0.29344 -s 0 -d 1 -p tcp -e 1040 -c 1 -i 13 -a 1 -x {0.0 2.0 -1 ------- null}
- -t 0.29344 -s 1 -d 0 -p tcp -e 1040 -c 2 -i 15 -a 2 -x {1.0 3.0 4 ------- null}
h -t 0.29344 -s 1 -d 0 -p tcp -e 1040 -c 2 -i 15 -a 2 -x {1.0 3.0 -1 ------- null}
- -t 0.2976 -s 0 -d 1 -p tcp -e 1040 -c 1 -i 16 -a 1 -x {0.0 2.0 5 ------- null}
h -t 0.2976 -s 0 -d 1 -p tcp -e 1040 -c 1 -i 16 -a 1 -x {0.0 2.0 -1 ------- null}
- -t 0.2976 -s 1 -d 0 -p tcp -e 1040 -c 2 -i 18 -a 2 -x {1.0 3.0 5 ------- null}
h -t 0.2976 -s 1 -d 0 -p tcp -e 1040 -c 2 -i 18 -a 2 -x {1.0 3.0 -1 ------- null}
- -t 0.30176 -s 0 -d 1 -p tcp -e 1040 -c 1 -i 17 -a 1 -x {0.0 2.0 6 ------- null}
h -t 0.30176 -s 0 -d 1 -p tcp -e 1040 -c 1 -i 17 -a 1 -x {0.0 2.0 -1 ------- null}
- -t 0.30176 -s 1 -d 0 -p tcp -e 1040 -c 2 -i 19 -a 2 -x {1.0 3.0 6 ------- null}
h -t 0.30176 -s 1 -d 0 -p tcp -e 1040 -c 2 -i 19 -a 2 -x {1.0 3.0 -1 ------- null}
r -t 0.30344 -s 0 -d 1 -p tcp -e 1040 -c 1 -i 12 -a 1 -x {0.0 2.0 3 ------- null}
+ -t 0.30344 -s 1 -d 2 -p tcp -e 1040 -c 1 -i 12 -a 1 -x {0.0 2.0 3 ------- null}
- -t 0.30344 -s 1 -d 2 -p tcp -e 1040 -c 1 -i 12 -a 1 -x {0.0 2.0 3 ------- null}
h -t 0.30344 -s 1 -d 2 -p tcp -e 1040 -c 1 -i 12 -a 1 -x {0.0 2.0 -1 ------- null}
r -t 0.30344 -s 1 -d 0 -p tcp -e 1040 -c 2 -i 14 -a 2 -x {1.0 3.0 3 ------- null}
+ -t 0.30344 -s 0 -d 3 -p tcp -e 1040 -c 2 -i 14 -a 2 -x {1.0 3.0 3 ------- null}
- -t 0.30344 -s 0 -d 3 -p tcp -e 1040 -c 2 -i 14 -a 2 -x {1.0 3.0 3 ------- null}
h -t 0.30344 -s 0 -d 3 -p tcp -e 1040 -c 2 -i 14 -a 2 -x {1.0 3.0 -1 ------- null}
r -t 0.3076 -s 0 -d 1 -p tcp -e 1040 -c 1 -i 13 -a 1 -x {0.0 2.0 4 ------- null}
+ -t 0.3076 -s 1 -d 2 -p tcp -e 1040 -c 1 -i 13 -a 1 -x {0.0 2.0 4 ------- null}
r -t 0.3076 -s 1 -d 0 -p tcp -e 1040 -c 2 -i 15 -a 2 -x {1.0 3.0 4 ------- null}
+ -t 0.3076 -s 0 -d 3 -p tcp -e 1040 -c 2 -i 15 -a 2 -x {1.0 3.0 4 ------- null}
- -t 0.3076 -s 1 -d 2 -p tcp -e 1040 -c 1 -i 13 -a 1 -x {0.0 2.0 4 ------- null}
h -t 0.3076 -s 1 -d 2 -p tcp -e 1040 -c 1 -i 13 -a 1 -x {0.0 2.0 -1 ------- null}
- -t 0.3076 -s 0 -d 3 -p tcp -e 1040 -c 2 -i 15 -a 2 -x {1.0 3.0 4 ------- null}
h -t 0.3076 -s 0 -d 3 -p tcp -e 1040 -c 2 -i 15 -a 2 -x {1.0 3.0 -1 ------- null}
r -t 0.31176 -s 0 -d 1 -p tcp -e 1040 -c 1 -i 16 -a 1 -x {0.0 2.0 5 ------- null}
+ -t 0.31176 -s 1 -d 2 -p tcp -e 1040 -c 1 -i 16 -a 1 -x {0.0 2.0 5 ------- null}
r -t 0.31176 -s 1 -d 0 -p tcp -e 1040 -c 2 -i 18 -a 2 -x {1.0 3.0 5 ------- null}
+ -t 0.31176 -s 0 -d 3 -p tcp -e 1040 -c 2 -i 18 -a 2 -x {1.0 3.0 5 ------- null}
- -t 0.31176 -s 1 -d 2 -p tcp -e 1040 -c 1 -i 16 -a 1 -x {0.0 2.0 5 ------- null}
h -t 0.31176 -s 1 -d 2 -p tcp -e 1040 -c 1 -i 16 -a 1 -x {0.0 2.0 -1 ------- null}
- -t 0.31176 -s 0 -d 3 -p tcp -e 1040 -c 2 -i 18 -a 2 -x {1.0 3.0 5 ------- null}
h -t 0.31176 -s 0 -d 3 -p tcp -e 1040 -c 2 -i 18 -a 2 -x {1.0 3.0 -1 ------- null}
r -t 0.31592 -s 0 -d 1 -p tcp -e 1040 -c 1 -i 17 -a 1 -x {0.0 2.0 6 ------- null}
+ -t 0.31592 -s 1 -d 2 -p tcp -e 1040 -c 1 -i 17 -a 1 -x {0.0 2.0 6 ------- null}
r -t 0.31592 -s 1 -d 0 -p tcp -e 1040 -c 2 -i 19 -a 2 -x {1.0 3.0 6 ------- null}
+ -t 0.31592 -s 0 -d 3 -p tcp -e 1040 -c 2 -i 19 -a 2 -x {1.0 3.0 6 ------- null}
- -t 0.31592 -s 1 -d 2 -p tcp -e 1040 -c 1 -i 17 -a 1 -x {0.0 2.0 6 ------- null}
h -t 0.31592 -s 1 -d 2 -p tcp -e 1040 -c 1 -i 17 -a 1 -x {0.0 2.0 -1 ------- null}
- -t 0.31592 -s 0 -d 3 -p tcp -e 1040 -c 2 -i 19 -a 2 -x {1.0 3.0 6 ------- null}
h -t 0.31592 -s 0 -d 3 -p tcp -e 1040 -c 2 -i 19 -a 2 -x {1.0 3.0 -1 ------- null}
r -t 0.3176 -s 1 -d 2 -p tcp -e 1040 -c 1 -i 12 -a 1 -x {0.0 2.0 3 ------- null}
+ -t 0.3176 -s 2 -d 1 -p ack -e 40 -c 1 -i 20 -a 1 -x {2.0 0.0 3 ------- null}
- -t 0.3176 -s 2 -d 1 -p ack -e 40 -c 1 -i 20 -a 1 -x {2.0 0.0 3 ------- null}
h -t 0.3176 -s 2 -d 1 -p ack -e 40 -c 1 -i 20 -a 1 -x {2.0 0.0 -1 ------- null}
r -t 0.3176 -s 0 -d 3 -p tcp -e 1040 -c 2 -i 14 -a 2 -x {1.0 3.0 3 ------- null}
+ -t 0.3176 -s 3 -d 0 -p ack -e 40 -c 2 -i 21 -a 2 -x {3.0 1.0 3 ------- null}
- -t 0.3176 -s 3 -d 0 -p ack -e 40 -c 2 -i 21 -a 2 -x {3.0 1.0 3 ------- null}
h -t 0.3176 -s 3 -d 0 -p ack -e 40 -c 2 -i 21 -a 2 -x {3.0 1.0 -1 ------- null}
r -t 0.32176 -s 1 -d 2 -p tcp -e 1040 -c 1 -i 13 -a 1 -x {0.0 2.0 4 ------- null}
+ -t 0.32176 -s 2 -d 1 -p ack -e 40 -c 1 -i 22 -a 1 -x {2.0 0.0 4 ------- null}
- -t 0.32176 -s 2 -d 1 -p ack -e 40 -c 1 -i 22 -a 1 -x {2.0 0.0 4 ------- null}
h -t 0.32176 -s 2 -d 1 -p ack -e 40 -c 1 -i 22 -a 1 -x {2.0 0.0 -1 ------- null}
r -t 0.32176 -s 0 -d 3 -p tcp -e 1040 -c 2 -i 15 -a 2 -x {1.0 3.0 4 ------- null}
+ -t 0.32176 -s 3 -d 0 -p ack -e 40 -c 2 -i 23 -a 2 -x {3.0 1.0 4 ------- null}
- -t 0.32176 -s 3 -d 0 -p ack -e 40 -c 2 -i 23 -a 2 -x {3.0 1.0 4 ------- null}
h -t 0.32176 -s 3 -d 0 -p ack -e 40 -c 2 -i 23 -a 2 -x {3.0 1.0 -1 ------- null}
r -t 0.32592 -s 1 -d 2 -p tcp -e 1040 -c 1 -i 16 -a 1 -x {0.0 2.0 5 ------- null}
+ -t 0.32592 -s 2 -d 1 -p ack -e 40 -c 1 -i 24 -a 1 -x {2.0 0.0 5 ------- null}
- -t 0.32592 -s 2 -d 1 -p ack -e 40 -c 1 -i 24 -a 1 -x {2.0 0.0 5 ------- null}
h -t 0.32592 -s 2 -d 1 -p ack -e 40 -c 1 -i 24 -a 1 -x {2.0 0.0 -1 ------- null}
r -t 0.32592 -s 0 -d 3 -p tcp -e 1040 -c 2 -i 18 -a 2 -x {1.0 3.0 5 ------- null}
+ -t 0.32592 -s 3 -d 0 -p ack -e 40 -c 2 -i 25 -a 2 -x {3.0 1.0 5 ------- null}
- -t 0.32592 -s 3 -d 0 -p ack -e 40 -c 2 -i 25 -a 2 -x {3.0 1.0 5 ------- null}
h -t 0.32592 -s 3 -d 0 -p ack -e 40 -c 2 -i 25 -a 2 -x {3.0 1.0 -1 ------- null}
r -t 0.32776 -s 2 -d 1 -p ack -e 40 -c 1 -i 20 -a 1 -x {2.0 0.0 3 ------- null}
+ -t 0.32776 -s 1 -d 0 -p ack -e 40 -c 1 -i 20 -a 1 -x {2.0 0.0 3 ------- null}
- -t 0.32776 -s 1 -d 0 -p ack -e 40 -c 1 -i 20 -a 1 -x {2.0 0.0 3 ------- null}
h -t 0.32776 -s 1 -d 0 -p ack -e 40 -c 1 -i 20 -a 1 -x {2.0 0.0 -1 ------- null}
r -t 0.32776 -s 3 -d 0 -p ack -e 40 -c 2 -i 21 -a 2 -x {3.0 1.0 3 ------- null}
+ -t 0.32776 -s 0 -d 1 -p ack -e 40 -c 2 -i 21 -a 2 -x {3.0 1.0 3 ------- null}
- -t 0.32776 -s 0 -d 1 -p ack -e 40 -c 2 -i 21 -a 2 -x {3.0 1.0 3 ------- null}
h -t 0.32776 -s 0 -d 1 -p ack -e 40 -c 2 -i 21 -a 2 -x {3.0 1.0 -1 ------- null}
r -t 0.33008 -s 1 -d 2 -p tcp -e 1040 -c 1 -i 17 -a 1 -x {0.0 2.0 6 ------- null}
+ -t 0.33008 -s 2 -d 1 -p ack -e 40 -c 1 -i 26 -a 1 -x {2.0 0.0 6 ------- null}
- -t 0.33008 -s 2 -d 1 -p ack -e 40 -c 1 -i 26 -a 1 -x {2.0 0.0 6 ------- null}
h -t 0.33008 -s 2 -d 1 -p ack -e 40 -c 1 -i 26 -a 1 -x {2.0 0.0 -1 ------- null}
r -t 0.33008 -s 0 -d 3 -p tcp -e 1040 -c 2 -i 19 -a 2 -x {1.0 3.0 6 ------- null}
+ -t 0.33008 -s 3 -d 0 -p ack -e 40 -c 2 -i 27 -a 2 -x {3.0 1.0 6 ------- null}
- -t 0.33008 -s 3 -d 0 -p ack -e 40 -c 2 -i 27 -a 2 -x {3.0 1.0 6 ------- null}
h -t 0.33008 -s 3 -d 0 -p ack -e 40 -c 2 -i 27 -a 2 -x {3.0 1.0 -1 ------- null}
r -t 0.33192 -s 2 -d 1 -p ack -e 40 -c 1 -i 22 -a 1 -x {2.0 0.0 4 ------- null}
+ -t 0.33192 -s 1 -d 0 -p ack -e 40 -c 1 -i 22 -a 1 -x {2.0 0.0 4 ------- null}
- -t 0.33192 -s 1 -d 0 -p ack -e 40 -c 1 -i 22 -a 1 -x {2.0 0.0 4 ------- null}
h -t 0.33192 -s 1 -d 0 -p ack -e 40 -c 1 -i 22 -a 1 -x {2.0 0.0 -1 ------- null}
r -t 0.33192 -s 3 -d 0 -p ack -e 40 -c 2 -i 23 -a 2 -x {3.0 1.0 4 ------- null}
+ -t 0.33192 -s 0 -d 1 -p ack -e 40 -c 2 -i 23 -a 2 -x {3.0 1.0 4 ------- null}
- -t 0.33192 -s 0 -d 1 -p ack -e 40 -c 2 -i 23 -a 2 -x {3.0 1.0 4 ------- null}
h -t 0.33192 -s 0 -d 1 -p ack -e 40 -c 2 -i 23 -a 2 -x {3.0 1.0 -1 ------- null}
r -t 0.33608 -s 2 -d 1 -p ack -e 40 -c 1 -i 24 -a 1 -x {2.0 0.0 5 ------- null}
+ -t 0.33608 -s 1 -d 0 -p ack -e 40 -c 1 -i 24 -a 1 -x {2.0 0.0 5 ------- null}
- -t 0.33608 -s 1 -d 0 -p ack -e 40 -c 1 -i 24 -a 1 -x {2.0 0.0 5 ------- null}
h -t 0.33608 -s 1 -d 0 -p ack -e 40 -c 1 -i 24 -a 1 -x {2.0 0.0 -1 ------- null}
r -t 0.33608 -s 3 -d 0 -p ack -e 40 -c 2 -i 25 -a 2 -x {3.0 1.0 5 ------- null}
+ -t 0.33608 -s 0 -d 1 -p ack -e 40 -c 2 -i 25 -a 2 -x {3.0 1.0 5 ------- null}
- -t 0.33608 -s 0 -d 1 -p ack -e 40 -c 2 -i 25 -a 2 -x {3.0 1.0 5 ------- null}
h -t 0.33608 -s 0 -d 1 -p ack -e 40 -c 2 -i 25 -a 2 -x {3.0 1.0 -1 ------- null}
r -t 0.33792 -s 1 -d 0 -p ack -e 40 -c 1 -i 20 -a 1 -x {2.0 0.0 3 ------- null}
+ -t 0.33792 -s 0 -d 1 -p tcp -e 1040 -c 1 -i 28 -a 1 -x {0.0 2.0 7 ------- null}
- -t 0.33792 -s 0 -d 1 -p tcp -e 1040 -c 1 -i 28 -a 1 -x {0.0 2.0 7 ------- null}
h -t 0.33792 -s 0 -d 1 -p tcp -e 1040 -c 1 -i 28 -a 1 -x {0.0 2.0 -1 ------- null}
+ -t 0.33792 -s 0 -d 1 -p tcp -e 1040 -c 1 -i 29 -a 1 -x {0.0 2.0 8 ------- null}
r -t 0.33792 -s 0 -d 1 -p ack -e 40 -c 2 -i 21 -a 2 -x {3.0 1.0 3 ------- null}
+ -t 0.33792 -s 1 -d 0 -p tcp -e 1040 -c 2 -i 30 -a 2 -x {1.0 3.0 7 ------- null}
- -t 0.33792 -s 1 -d 0 -p tcp -e 1040 -c 2 -i 30 -a 2 -x {1.0 3.0 7 ------- null}
h -t 0.33792 -s 1 -d 0 -p tcp -e 1040 -c 2 -i 30 -a 2 -x {1.0 3.0 -1 ------- null}
+ -t 0.33792 -s 1 -d 0 -p tcp -e 1040 -c 2 -i 31 -a 2 -x {1.0 3.0 8 ------- null}
r -t 0.34024 -s 2 -d 1 -p ack -e 40 -c 1 -i 26 -a 1 -x {2.0 0.0 6 ------- null}
+ -t 0.34024 -s 1 -d 0 -p ack -e 40 -c 1 -i 26 -a 1 -x {2.0 0.0 6 ------- null}
r -t 0.34024 -s 3 -d 0 -p ack -e 40 -c 2 -i 27 -a 2 -x {3.0 1.0 6 ------- null}
+ -t 0.34024 -s 0 -d 1 -p ack -e 40 -c 2 -i 27 -a 2 -x {3.0 1.0 6 ------- null}
r -t 0.34208 -s 1 -d 0 -p ack -e 40 -c 1 -i 22 -a 1 -x {2.0 0.0 4 ------- null}
+ -t 0.34208 -s 0 -d 1 -p tcp -e 1040 -c 1 -i 32 -a 1 -x {0.0 2.0 9 ------- null}
+ -t 0.34208 -s 0 -d 1 -p tcp -e 1040 -c 1 -i 33 -a 1 -x {0.0 2.0 10 ------- null}
r -t 0.34208 -s 0 -d 1 -p ack -e 40 -c 2 -i 23 -a 2 -x {3.0 1.0 4 ------- null}
+ -t 0.34208 -s 1 -d 0 -p tcp -e 1040 -c 2 -i 34 -a 2 -x {1.0 3.0 9 ------- null}
+ -t 0.34208 -s 1 -d 0 -p tcp -e 1040 -c 2 -i 35 -a 2 -x {1.0 3.0 10 ------- null}
- -t 0.34208 -s 0 -d 1 -p tcp -e 1040 -c 1 -i 29 -a 1 -x {0.0 2.0 8 ------- null}
h -t 0.34208 -s 0 -d 1 -p tcp -e 1040 -c 1 -i 29 -a 1 -x {0.0 2.0 -1 ------- null}
- -t 0.34208 -s 1 -d 0 -p tcp -e 1040 -c 2 -i 31 -a 2 -x {1.0 3.0 8 ------- null}
h -t 0.34208 -s 1 -d 0 -p tcp -e 1040 -c 2 -i 31 -a 2 -x {1.0 3.0 -1 ------- null}
r -t 0.34624 -s 1 -d 0 -p ack -e 40 -c 1 -i 24 -a 1 -x {2.0 0.0 5 ------- null}
+ -t 0.34624 -s 0 -d 1 -p tcp -e 1040 -c 1 -i 36 -a 1 -x {0.0 2.0 11 ------- null}
+ -t 0.34624 -s 0 -d 1 -p tcp -e 1040 -c 1 -i 37 -a 1 -x {0.0 2.0 12 ------- null}
r -t 0.34624 -s 0 -d 1 -p ack -e 40 -c 2 -i 25 -a 2 -x {3.0 1.0 5 ------- null}
+ -t 0.34624 -s 1 -d 0 -p tcp -e 1040 -c 2 -i 38 -a 2 -x {1.0 3.0 11 ------- null}
+ -t 0.34624 -s 1 -d 0 -p tcp -e 1040 -c 2 -i 39 -a 2 -x {1.0 3.0 12 ------- null}
- -t 0.34624 -s 0 -d 1 -p ack -e 40 -c 2 -i 27 -a 2 -x {3.0 1.0 6 ------- null}
h -t 0.34624 -s 0 -d 1 -p ack -e 40 -c 2 -i 27 -a 2 -x {3.0 1.0 -1 ------- null}
- -t 0.34624 -s 1 -d 0 -p ack -e 40 -c 1 -i 26 -a 1 -x {2.0 0.0 6 ------- null}
h -t 0.34624 -s 1 -d 0 -p ack -e 40 -c 1 -i 26 -a 1 -x {2.0 0.0 -1 ------- null}
- -t 0.3464 -s 0 -d 1 -p tcp -e 1040 -c 1 -i 32 -a 1 -x {0.0 2.0 9 ------- null}
h -t 0.3464 -s 0 -d 1 -p tcp -e 1040 -c 1 -i 32 -a 1 -x {0.0 2.0 -1 ------- null}
- -t 0.3464 -s 1 -d 0 -p tcp -e 1040 -c 2 -i 34 -a 2 -x {1.0 3.0 9 ------- null}
h -t 0.3464 -s 1 -d 0 -p tcp -e 1040 -c 2 -i 34 -a 2 -x {1.0 3.0 -1 ------- null}
- -t 0.35056 -s 0 -d 1 -p tcp -e 1040 -c 1 -i 33 -a 1 -x {0.0 2.0 10 ------- null}
h -t 0.35056 -s 0 -d 1 -p tcp -e 1040 -c 1 -i 33 -a 1 -x {0.0 2.0 -1 ------- null}
- -t 0.35056 -s 1 -d 0 -p tcp -e 1040 -c 2 -i 35 -a 2 -x {1.0 3.0 10 ------- null}
h -t 0.35056 -s 1 -d 0 -p tcp -e 1040 -c 2 -i 35 -a 2 -x {1.0 3.0 -1 ------- null}
r -t 0.35208 -s 0 -d 1 -p tcp -e 1040 -c 1 -i 28 -a 1 -x {0.0 2.0 7 ------- null}
+ -t 0.35208 -s 1 -d 2 -p tcp -e 1040 -c 1 -i 28 -a 1 -x {0.0 2.0 7 ------- null}
- -t 0.35208 -s 1 -d 2 -p tcp -e 1040 -c 1 -i 28 -a 1 -x {0.0 2.0 7 ------- null}
h -t 0.35208 -s 1 -d 2 -p tcp -e 1040 -c 1 -i 28 -a 1 -x {0.0 2.0 -1 ------- null}
r -t 0.35208 -s 1 -d 0 -p tcp -e 1040 -c 2 -i 30 -a 2 -x {1.0 3.0 7 ------- null}
+ -t 0.35208 -s 0 -d 3 -p tcp -e 1040 -c 2 -i 30 -a 2 -x {1.0 3.0 7 ------- null}
- -t 0.35208 -s 0 -d 3 -p tcp -e 1040 -c 2 -i 30 -a 2 -x {1.0 3.0 7 ------- null}
h -t 0.35208 -s 0 -d 3 -p tcp -e 1040 -c 2 -i 30 -a 2 -x {1.0 3.0 -1 ------- null}
- -t 0.35472 -s 0 -d 1 -p tcp -e 1040 -c 1 -i 36 -a 1 -x {0.0 2.0 11 ------- null}
h -t 0.35472 -s 0 -d 1 -p tcp -e 1040 -c 1 -i 36 -a 1 -x {0.0 2.0 -1 ------- null}
- -t 0.35472 -s 1 -d 0 -p tcp -e 1040 -c 2 -i 38 -a 2 -x {1.0 3.0 11 ------- null}
h -t 0.35472 -s 1 -d 0 -p tcp -e 1040 -c 2 -i 38 -a 2 -x {1.0 3.0 -1 ------- null}
r -t 0.35624 -s 0 -d 1 -p tcp -e 1040 -c 1 -i 29 -a 1 -x {0.0 2.0 8 ------- null}
+ -t 0.35624 -s 1 -d 2 -p tcp -e 1040 -c 1 -i 29 -a 1 -x {0.0 2.0 8 ------- null}
r -t 0.35624 -s 1 -d 0 -p tcp -e 1040 -c 2 -i 31 -a 2 -x {1.0 3.0 8 ------- null}
+ -t 0.35624 -s 0 -d 3 -p tcp -e 1040 -c 2 -i 31 -a 2 -x {1.0 3.0 8 ------- null}
- -t 0.35624 -s 1 -d 2 -p tcp -e 1040 -c 1 -i 29 -a 1 -x {0.0 2.0 8 ------- null}
h -t 0.35624 -s 1 -d 2 -p tcp -e 1040 -c 1 -i 29 -a 1 -x {0.0 2.0 -1 ------- null}
- -t 0.35624 -s 0 -d 3 -p tcp -e 1040 -c 2 -i 31 -a 2 -x {1.0 3.0 8 ------- null}
h -t 0.35624 -s 0 -d 3 -p tcp -e 1040 -c 2 -i 31 -a 2 -x {1.0 3.0 -1 ------- null}
r -t 0.3564 -s 0 -d 1 -p ack -e 40 -c 2 -i 27 -a 2 -x {3.0 1.0 6 ------- null}
+ -t 0.3564 -s 1 -d 0 -p tcp -e 1040 -c 2 -i 40 -a 2 -x {1.0 3.0 13 ------- null}
+ -t 0.3564 -s 1 -d 0 -p tcp -e 1040 -c 2 -i 41 -a 2 -x {1.0 3.0 14 ------- null}
r -t 0.3564 -s 1 -d 0 -p ack -e 40 -c 1 -i 26 -a 1 -x {2.0 0.0 6 ------- null}
+ -t 0.3564 -s 0 -d 1 -p tcp -e 1040 -c 1 -i 42 -a 1 -x {0.0 2.0 13 ------- null}
+ -t 0.3564 -s 0 -d 1 -p tcp -e 1040 -c 1 -i 43 -a 1 -x {0.0 2.0 14 ------- null}
- -t 0.35888 -s 0 -d 1 -p tcp -e 1040 -c 1 -i 37 -a 1 -x {0.0 2.0 12 ------- null}
h -t 0.35888 -s 0 -d 1 -p tcp -e 1040 -c 1 -i 37 -a 1 -x {0.0 2.0 -1 ------- null}
- -t 0.35888 -s 1 -d 0 -p tcp -e 1040 -c 2 -i 39 -a 2 -x {1.0 3.0 12 ------- null}
h -t 0.35888 -s 1 -d 0 -p tcp -e 1040 -c 2 -i 39 -a 2 -x {1.0 3.0 -1 ------- null}
r -t 0.36056 -s 0 -d 1 -p tcp -e 1040 -c 1 -i 32 -a 1 -x {0.0 2.0 9 ------- null}
+ -t 0.36056 -s 1 -d 2 -p tcp -e 1040 -c 1 -i 32 -a 1 -x {0.0 2.0 9 ------- null}
- -t 0.36056 -s 1 -d 2 -p tcp -e 1040 -c 1 -i 32 -a 1 -x {0.0 2.0 9 ------- null}
h -t 0.36056 -s 1 -d 2 -p tcp -e 1040 -c 1 -i 32 -a 1 -x {0.0 2.0 -1 ------- null}
r -t 0.36056 -s 1 -d 0 -p tcp -e 1040 -c 2 -i 34 -a 2 -x {1.0 3.0 9 ------- null}
+ -t 0.36056 -s 0 -d 3 -p tcp -e 1040 -c 2 -i 34 -a 2 -x {1.0 3.0 9 ------- null}
- -t 0.36056 -s 0 -d 3 -p tcp -e 1040 -c 2 -i 34 -a 2 -x {1.0 3.0 9 ------- null}
h -t 0.36056 -s 0 -d 3 -p tcp -e 1040 -c 2 -i 34 -a 2 -x {1.0 3.0 -1 ------- null}
- -t 0.36304 -s 0 -d 1 -p tcp -e 1040 -c 1 -i 42 -a 1 -x {0.0 2.0 13 ------- null}
h -t 0.36304 -s 0 -d 1 -p tcp -e 1040 -c 1 -i 42 -a 1 -x {0.0 2.0 -1 ------- null}
- -t 0.36304 -s 1 -d 0 -p tcp -e 1040 -c 2 -i 40 -a 2 -x {1.0 3.0 13 ------- null}
h -t 0.36304 -s 1 -d 0 -p tcp -e 1040 -c 2 -i 40 -a 2 -x {1.0 3.0 -1 ------- null}
r -t 0.36472 -s 0 -d 1 -p tcp -e 1040 -c 1 -i 33 -a 1 -x {0.0 2.0 10 ------- null}
+ -t 0.36472 -s 1 -d 2 -p tcp -e 1040 -c 1 -i 33 -a 1 -x {0.0 2.0 10 ------- null}
r -t 0.36472 -s 1 -d 0 -p tcp -e 1040 -c 2 -i 35 -a 2 -x {1.0 3.0 10 ------- null}
+ -t 0.36472 -s 0 -d 3 -p tcp -e 1040 -c 2 -i 35 -a 2 -x {1.0 3.0 10 ------- null}
- -t 0.36472 -s 1 -d 2 -p tcp -e 1040 -c 1 -i 33 -a 1 -x {0.0 2.0 10 ------- null}
h -t 0.36472 -s 1 -d 2 -p tcp -e 1040 -c 1 -i 33 -a 1 -x {0.0 2.0 -1 ------- null}
- -t 0.36472 -s 0 -d 3 -p tcp -e 1040 -c 2 -i 35 -a 2 -x {1.0 3.0 10 ------- null}
h -t 0.36472 -s 0 -d 3 -p tcp -e 1040 -c 2 -i 35 -a 2 -x {1.0 3.0 -1 ------- null}
r -t 0.36624 -s 1 -d 2 -p tcp -e 1040 -c 1 -i 28 -a 1 -x {0.0 2.0 7 ------- null}
+ -t 0.36624 -s 2 -d 1 -p ack -e 40 -c 1 -i 44 -a 1 -x {2.0 0.0 7 ------- null}
- -t 0.36624 -s 2 -d 1 -p ack -e 40 -c 1 -i 44 -a 1 -x {2.0 0.0 7 ------- null}
h -t 0.36624 -s 2 -d 1 -p ack -e 40 -c 1 -i 44 -a 1 -x {2.0 0.0 -1 ------- null}
r -t 0.36624 -s 0 -d 3 -p tcp -e 1040 -c 2 -i 30 -a 2 -x {1.0 3.0 7 ------- null}
+ -t 0.36624 -s 3 -d 0 -p ack -e 40 -c 2 -i 45 -a 2 -x {3.0 1.0 7 ------- null}
- -t 0.36624 -s 3 -d 0 -p ack -e 40 -c 2 -i 45 -a 2 -x {3.0 1.0 7 ------- null}
h -t 0.36624 -s 3 -d 0 -p ack -e 40 -c 2 -i 45 -a 2 -x {3.0 1.0 -1 ------- null}
- -t 0.3672 -s 0 -d 1 -p tcp -e 1040 -c 1 -i 43 -a 1 -x {0.0 2.0 14 ------- null}
h -t 0.3672 -s 0 -d 1 -p tcp -e 1040 -c 1 -i 43 -a 1 -x {0.0 2.0 -1 ------- null}
- -t 0.3672 -s 1 -d 0 -p tcp -e 1040 -c 2 -i 41 -a 2 -x {1.0 3.0 14 ------- null}
h -t 0.3672 -s 1 -d 0 -p tcp -e 1040 -c 2 -i 41 -a 2 -x {1.0 3.0 -1 ------- null}
r -t 0.36888 -s 0 -d 1 -p tcp -e 1040 -c 1 -i 36 -a 1 -x {0.0 2.0 11 ------- null}
+ -t 0.36888 -s 1 -d 2 -p tcp -e 1040 -c 1 -i 36 -a 1 -x {0.0 2.0 11 ------- null}
r -t 0.36888 -s 1 -d 0 -p tcp -e 1040 -c 2 -i 38 -a 2 -x {1.0 3.0 11 ------- null}
+ -t 0.36888 -s 0 -d 3 -p tcp -e 1040 -c 2 -i 38 -a 2 -x {1.0 3.0 11 ------- null}
- -t 0.36888 -s 1 -d 2 -p tcp -e 1040 -c 1 -i 36 -a 1 -x {0.0 2.0 11 ------- null}
h -t 0.36888 -s 1 -d 2 -p tcp -e 1040 -c 1 -i 36 -a 1 -x {0.0 2.0 -1 ------- null}
- -t 0.36888 -s 0 -d 3 -p tcp -e 1040 -c 2 -i 38 -a 2 -x {1.0 3.0 11 ------- null}
h -t 0.36888 -s 0 -d 3 -p tcp -e 1040 -c 2 -i 38 -a 2 -x {1.0 3.0 -1 ------- null}
r -t 0.3704 -s 1 -d 2 -p tcp -e 1040 -c 1 -i 29 -a 1 -x {0.0 2.0 8 ------- null}
+ -t 0.3704 -s 2 -d 1 -p ack -e 40 -c 1 -i 46 -a 1 -x {2.0 0.0 8 ------- null}
- -t 0.3704 -s 2 -d 1 -p ack -e 40 -c 1 -i 46 -a 1 -x {2.0 0.0 8 ------- null}
h -t 0.3704 -s 2 -d 1 -p ack -e 40 -c 1 -i 46 -a 1 -x {2.0 0.0 -1 ------- null}
r -t 0.3704 -s 0 -d 3 -p tcp -e 1040 -c 2 -i 31 -a 2 -x {1.0 3.0 8 ------- null}
+ -t 0.3704 -s 3 -d 0 -p ack -e 40 -c 2 -i 47 -a 2 -x {3.0 1.0 8 ------- null}
- -t 0.3704 -s 3 -d 0 -p ack -e 40 -c 2 -i 47 -a 2 -x {3.0 1.0 8 ------- null}
h -t 0.3704 -s 3 -d 0 -p ack -e 40 -c 2 -i 47 -a 2 -x {3.0 1.0 -1 ------- null}
r -t 0.37304 -s 0 -d 1 -p tcp -e 1040 -c 1 -i 37 -a 1 -x {0.0 2.0 12 ------- null}
+ -t 0.37304 -s 1 -d 2 -p tcp -e 1040 -c 1 -i 37 -a 1 -x {0.0 2.0 12 ------- null}
r -t 0.37304 -s 1 -d 0 -p tcp -e 1040 -c 2 -i 39 -a 2 -x {1.0 3.0 12 ------- null}
+ -t 0.37304 -s 0 -d 3 -p tcp -e 1040 -c 2 -i 39 -a 2 -x {1.0 3.0 12 ------- null}
- -t 0.37304 -s 1 -d 2 -p tcp -e 1040 -c 1 -i 37 -a 1 -x {0.0 2.0 12 ------- null}
h -t 0.37304 -s 1 -d 2 -p tcp -e 1040 -c 1 -i 37 -a 1 -x {0.0 2.0 -1 ------- null}
- -t 0.37304 -s 0 -d 3 -p tcp -e 1040 -c 2 -i 39 -a 2 -x {1.0 3.0 12 ------- null}
h -t 0.37304 -s 0 -d 3 -p tcp -e 1040 -c 2 -i 39 -a 2 -x {1.0 3.0 -1 ------- null}
r -t 0.37472 -s 1 -d 2 -p tcp -e 1040 -c 1 -i 32 -a 1 -x {0.0 2.0 9 ------- null}
+ -t 0.37472 -s 2 -d 1 -p ack -e 40 -c 1 -i 48 -a 1 -x {2.0 0.0 9 ------- null}
- -t 0.37472 -s 2 -d 1 -p ack -e 40 -c 1 -i 48 -a 1 -x {2.0 0.0 9 ------- null}
h -t 0.37472 -s 2 -d 1 -p ack -e 40 -c 1 -i 48 -a 1 -x {2.0 0.0 -1 ------- null}
r -t 0.37472 -s 0 -d 3 -p tcp -e 1040 -c 2 -i 34 -a 2 -x {1.0 3.0 9 ------- null}
+ -t 0.37472 -s 3 -d 0 -p ack -e 40 -c 2 -i 49 -a 2 -x {3.0 1.0 9 ------- null}
- -t 0.37472 -s 3 -d 0 -p ack -e 40 -c 2 -i 49 -a 2 -x {3.0 1.0 9 ------- null}
h -t 0.37472 -s 3 -d 0 -p ack -e 40 -c 2 -i 49 -a 2 -x {3.0 1.0 -1 ------- null}
r -t 0.3764 -s 2 -d 1 -p ack -e 40 -c 1 -i 44 -a 1 -x {2.0 0.0 7 ------- null}
+ -t 0.3764 -s 1 -d 0 -p ack -e 40 -c 1 -i 44 -a 1 -x {2.0 0.0 7 ------- null}
- -t 0.3764 -s 1 -d 0 -p ack -e 40 -c 1 -i 44 -a 1 -x {2.0 0.0 7 ------- null}
h -t 0.3764 -s 1 -d 0 -p ack -e 40 -c 1 -i 44 -a 1 -x {2.0 0.0 -1 ------- null}
r -t 0.3764 -s 3 -d 0 -p ack -e 40 -c 2 -i 45 -a 2 -x {3.0 1.0 7 ------- null}
+ -t 0.3764 -s 0 -d 1 -p ack -e 40 -c 2 -i 45 -a 2 -x {3.0 1.0 7 ------- null}
- -t 0.3764 -s 0 -d 1 -p ack -e 40 -c 2 -i 45 -a 2 -x {3.0 1.0 7 ------- null}
h -t 0.3764 -s 0 -d 1 -p ack -e 40 -c 2 -i 45 -a 2 -x {3.0 1.0 -1 ------- null}
r -t 0.3772 -s 0 -d 1 -p tcp -e 1040 -c 1 -i 42 -a 1 -x {0.0 2.0 13 ------- null}
+ -t 0.3772 -s 1 -d 2 -p tcp -e 1040 -c 1 -i 42 -a 1 -x {0.0 2.0 13 ------- null}
r -t 0.3772 -s 1 -d 0 -p tcp -e 1040 -c 2 -i 40 -a 2 -x {1.0 3.0 13 ------- null}
+ -t 0.3772 -s 0 -d 3 -p tcp -e 1040 -c 2 -i 40 -a 2 -x {1.0 3.0 13 ------- null}
- -t 0.3772 -s 1 -d 2 -p tcp -e 1040 -c 1 -i 42 -a 1 -x {0.0 2.0 13 ------- null}
h -t 0.3772 -s 1 -d 2 -p tcp -e 1040 -c 1 -i 42 -a 1 -x {0.0 2.0 -1 ------- null}
- -t 0.3772 -s 0 -d 3 -p tcp -e 1040 -c 2 -i 40 -a 2 -x {1.0 3.0 13 ------- null}
h -t 0.3772 -s 0 -d 3 -p tcp -e 1040 -c 2 -i 40 -a 2 -x {1.0 3.0 -1 ------- null}
r -t 0.37888 -s 1 -d 2 -p tcp -e 1040 -c 1 -i 33 -a 1 -x {0.0 2.0 10 ------- null}
+ -t 0.37888 -s 2 -d 1 -p ack -e 40 -c 1 -i 50 -a 1 -x {2.0 0.0 10 ------- null}