+ 0.2 0 1 tcp 40 ------- 1 0.0 2.0 0 0
- 0.2 0 1 tcp 40 ------- 1 0.0 2.0 0 0
+ 0.2 1 0 tcp 40 ------- 2 1.0 3.0 0 1
- 0.2 1 0 tcp 40 ------- 2 1.0 3.0 0 1
r 0.21016 0 1 tcp 40 ------- 1 0.0 2.0 0 0
+ 0.21016 1 2 tcp 40 ------- 1 0.0 2.0 0 0
- 0.21016 1 2 tcp 40 ------- 1 0.0 2.0 0 0
r 0.21016 1 0 tcp 40 ------- 2 1.0 3.0 0 1
+ 0.21016 0 3 tcp 40 ------- 2 1.0 3.0 0 1
- 0.21016 0 3 tcp 40 ------- 2 1.0 3.0 0 1
r 0.22032 1 2 tcp 40 ------- 1 0.0 2.0 0 0
+ 0.22032 2 1 ack 40 ------- 1 2.0 0.0 0 2
- 0.22032 2 1 ack 40 ------- 1 2.0 0.0 0 2
r 0.22032 0 3 tcp 40 ------- 2 1.0 3.0 0 1
+ 0.22032 3 0 ack 40 ------- 2 3.0 1.0 0 3
- 0.22032 3 0 ack 40 ------- 2 3.0 1.0 0 3
r 0.23048 2 1 ack 40 ------- 1 2.0 0.0 0 2
+ 0.23048 1 0 ack 40 ------- 1 2.0 0.0 0 2
- 0.23048 1 0 ack 40 ------- 1 2.0 0.0 0 2
r 0.23048 3 0 ack 40 ------- 2 3.0 1.0 0 3
+ 0.23048 0 1 ack 40 ------- 2 3.0 1.0 0 3
- 0.23048 0 1 ack 40 ------- 2 3.0 1.0 0 3
r 0.24064 1 0 ack 40 ------- 1 2.0 0.0 0 2
+ 0.24064 0 1 tcp 1040 ------- 1 0.0 2.0 1 4
- 0.24064 0 1 tcp 1040 ------- 1 0.0 2.0 1 4
+ 0.24064 0 1 tcp 1040 ------- 1 0.0 2.0 2 5
r 0.24064 0 1 ack 40 ------- 2 3.0 1.0 0 3
+ 0.24064 1 0 tcp 1040 ------- 2 1.0 3.0 1 6
- 0.24064 1 0 tcp 1040 ------- 2 1.0 3.0 1 6
+ 0.24064 1 0 tcp 1040 ------- 2 1.0 3.0 2 7
- 0.2448 0 1 tcp 1040 ------- 1 0.0 2.0 2 5
- 0.2448 1 0 tcp 1040 ------- 2 1.0 3.0 2 7
r 0.2548 0 1 tcp 1040 ------- 1 0.0 2.0 1 4
+ 0.2548 1 2 tcp 1040 ------- 1 0.0 2.0 1 4
- 0.2548 1 2 tcp 1040 ------- 1 0.0 2.0 1 4
r 0.2548 1 0 tcp 1040 ------- 2 1.0 3.0 1 6
+ 0.2548 0 3 tcp 1040 ------- 2 1.0 3.0 1 6
- 0.2548 0 3 tcp 1040 ------- 2 1.0 3.0 1 6
r 0.25896 0 1 tcp 1040 ------- 1 0.0 2.0 2 5
+ 0.25896 1 2 tcp 1040 ------- 1 0.0 2.0 2 5
r 0.25896 1 0 tcp 1040 ------- 2 1.0 3.0 2 7
+ 0.25896 0 3 tcp 1040 ------- 2 1.0 3.0 2 7
- 0.25896 1 2 tcp 1040 ------- 1 0.0 2.0 2 5
- 0.25896 0 3 tcp 1040 ------- 2 1.0 3.0 2 7
r 0.26896 1 2 tcp 1040 ------- 1 0.0 2.0 1 4
+ 0.26896 2 1 ack 40 ------- 1 2.0 0.0 1 8
- 0.26896 2 1 ack 40 ------- 1 2.0 0.0 1 8
r 0.26896 0 3 tcp 1040 ------- 2 1.0 3.0 1 6
+ 0.26896 3 0 ack 40 ------- 2 3.0 1.0 1 9
- 0.26896 3 0 ack 40 ------- 2 3.0 1.0 1 9
r 0.27312 1 2 tcp 1040 ------- 1 0.0 2.0 2 5
+ 0.27312 2 1 ack 40 ------- 1 2.0 0.0 2 10
- 0.27312 2 1 ack 40 ------- 1 2.0 0.0 2 10
r 0.27312 0 3 tcp 1040 ------- 2 1.0 3.0 2 7
+ 0.27312 3 0 ack 40 ------- 2 3.0 1.0 2 11
- 0.27312 3 0 ack 40 ------- 2 3.0 1.0 2 11
r 0.27912 2 1 ack 40 ------- 1 2.0 0.0 1 8
+ 0.27912 1 0 ack 40 ------- 1 2.0 0.0 1 8
- 0.27912 1 0 ack 40 ------- 1 2.0 0.0 1 8
r 0.27912 3 0 ack 40 ------- 2 3.0 1.0 1 9
+ 0.27912 0 1 ack 40 ------- 2 3.0 1.0 1 9
- 0.27912 0 1 ack 40 ------- 2 3.0 1.0 1 9
r 0.28328 2 1 ack 40 ------- 1 2.0 0.0 2 10
+ 0.28328 1 0 ack 40 ------- 1 2.0 0.0 2 10
- 0.28328 1 0 ack 40 ------- 1 2.0 0.0 2 10
r 0.28328 3 0 ack 40 ------- 2 3.0 1.0 2 11
+ 0.28328 0 1 ack 40 ------- 2 3.0 1.0 2 11
- 0.28328 0 1 ack 40 ------- 2 3.0 1.0 2 11
r 0.28928 1 0 ack 40 ------- 1 2.0 0.0 1 8
+ 0.28928 0 1 tcp 1040 ------- 1 0.0 2.0 3 12
- 0.28928 0 1 tcp 1040 ------- 1 0.0 2.0 3 12
+ 0.28928 0 1 tcp 1040 ------- 1 0.0 2.0 4 13
r 0.28928 0 1 ack 40 ------- 2 3.0 1.0 1 9
+ 0.28928 1 0 tcp 1040 ------- 2 1.0 3.0 3 14
- 0.28928 1 0 tcp 1040 ------- 2 1.0 3.0 3 14
+ 0.28928 1 0 tcp 1040 ------- 2 1.0 3.0 4 15
r 0.29344 1 0 ack 40 ------- 1 2.0 0.0 2 10
+ 0.29344 0 1 tcp 1040 ------- 1 0.0 2.0 5 16
+ 0.29344 0 1 tcp 1040 ------- 1 0.0 2.0 6 17
r 0.29344 0 1 ack 40 ------- 2 3.0 1.0 2 11
+ 0.29344 1 0 tcp 1040 ------- 2 1.0 3.0 5 18
+ 0.29344 1 0 tcp 1040 ------- 2 1.0 3.0 6 19
- 0.29344 0 1 tcp 1040 ------- 1 0.0 2.0 4 13
- 0.29344 1 0 tcp 1040 ------- 2 1.0 3.0 4 15
- 0.2976 0 1 tcp 1040 ------- 1 0.0 2.0 5 16
- 0.2976 1 0 tcp 1040 ------- 2 1.0 3.0 5 18
- 0.30176 0 1 tcp 1040 ------- 1 0.0 2.0 6 17
- 0.30176 1 0 tcp 1040 ------- 2 1.0 3.0 6 19
r 0.30344 0 1 tcp 1040 ------- 1 0.0 2.0 3 12
+ 0.30344 1 2 tcp 1040 ------- 1 0.0 2.0 3 12
- 0.30344 1 2 tcp 1040 ------- 1 0.0 2.0 3 12
r 0.30344 1 0 tcp 1040 ------- 2 1.0 3.0 3 14
+ 0.30344 0 3 tcp 1040 ------- 2 1.0 3.0 3 14
- 0.30344 0 3 tcp 1040 ------- 2 1.0 3.0 3 14
r 0.3076 0 1 tcp 1040 ------- 1 0.0 2.0 4 13
+ 0.3076 1 2 tcp 1040 ------- 1 0.0 2.0 4 13
r 0.3076 1 0 tcp 1040 ------- 2 1.0 3.0 4 15
+ 0.3076 0 3 tcp 1040 ------- 2 1.0 3.0 4 15
- 0.3076 1 2 tcp 1040 ------- 1 0.0 2.0 4 13
- 0.3076 0 3 tcp 1040 ------- 2 1.0 3.0 4 15
r 0.31176 0 1 tcp 1040 ------- 1 0.0 2.0 5 16
+ 0.31176 1 2 tcp 1040 ------- 1 0.0 2.0 5 16
r 0.31176 1 0 tcp 1040 ------- 2 1.0 3.0 5 18
+ 0.31176 0 3 tcp 1040 ------- 2 1.0 3.0 5 18
- 0.31176 1 2 tcp 1040 ------- 1 0.0 2.0 5 16
- 0.31176 0 3 tcp 1040 ------- 2 1.0 3.0 5 18
r 0.31592 0 1 tcp 1040 ------- 1 0.0 2.0 6 17
+ 0.31592 1 2 tcp 1040 ------- 1 0.0 2.0 6 17
r 0.31592 1 0 tcp 1040 ------- 2 1.0 3.0 6 19
+ 0.31592 0 3 tcp 1040 ------- 2 1.0 3.0 6 19
- 0.31592 1 2 tcp 1040 ------- 1 0.0 2.0 6 17
- 0.31592 0 3 tcp 1040 ------- 2 1.0 3.0 6 19
r 0.3176 1 2 tcp 1040 ------- 1 0.0 2.0 3 12
+ 0.3176 2 1 ack 40 ------- 1 2.0 0.0 3 20
- 0.3176 2 1 ack 40 ------- 1 2.0 0.0 3 20
r 0.3176 0 3 tcp 1040 ------- 2 1.0 3.0 3 14
+ 0.3176 3 0 ack 40 ------- 2 3.0 1.0 3 21
- 0.3176 3 0 ack 40 ------- 2 3.0 1.0 3 21
r 0.32176 1 2 tcp 1040 ------- 1 0.0 2.0 4 13
+ 0.32176 2 1 ack 40 ------- 1 2.0 0.0 4 22
- 0.32176 2 1 ack 40 ------- 1 2.0 0.0 4 22
r 0.32176 0 3 tcp 1040 ------- 2 1.0 3.0 4 15
+ 0.32176 3 0 ack 40 ------- 2 3.0 1.0 4 23
- 0.32176 3 0 ack 40 ------- 2 3.0 1.0 4 23
r 0.32592 1 2 tcp 1040 ------- 1 0.0 2.0 5 16
+ 0.32592 2 1 ack 40 ------- 1 2.0 0.0 5 24
- 0.32592 2 1 ack 40 ------- 1 2.0 0.0 5 24
r 0.32592 0 3 tcp 1040 ------- 2 1.0 3.0 5 18
+ 0.32592 3 0 ack 40 ------- 2 3.0 1.0 5 25
- 0.32592 3 0 ack 40 ------- 2 3.0 1.0 5 25
r 0.32776 2 1 ack 40 ------- 1 2.0 0.0 3 20
+ 0.32776 1 0 ack 40 ------- 1 2.0 0.0 3 20
- 0.32776 1 0 ack 40 ------- 1 2.0 0.0 3 20
r 0.32776 3 0 ack 40 ------- 2 3.0 1.0 3 21
+ 0.32776 0 1 ack 40 ------- 2 3.0 1.0 3 21
- 0.32776 0 1 ack 40 ------- 2 3.0 1.0 3 21
r 0.33008 1 2 tcp 1040 ------- 1 0.0 2.0 6 17
+ 0.33008 2 1 ack 40 ------- 1 2.0 0.0 6 26
- 0.33008 2 1 ack 40 ------- 1 2.0 0.0 6 26
r 0.33008 0 3 tcp 1040 ------- 2 1.0 3.0 6 19
+ 0.33008 3 0 ack 40 ------- 2 3.0 1.0 6 27
- 0.33008 3 0 ack 40 ------- 2 3.0 1.0 6 27
r 0.33192 2 1 ack 40 ------- 1 2.0 0.0 4 22
+ 0.33192 1 0 ack 40 ------- 1 2.0 0.0 4 22
- 0.33192 1 0 ack 40 ------- 1 2.0 0.0 4 22
r 0.33192 3 0 ack 40 ------- 2 3.0 1.0 4 23
+ 0.33192 0 1 ack 40 ------- 2 3.0 1.0 4 23
- 0.33192 0 1 ack 40 ------- 2 3.0 1.0 4 23
r 0.33608 2 1 ack 40 ------- 1 2.0 0.0 5 24
+ 0.33608 1 0 ack 40 ------- 1 2.0 0.0 5 24
- 0.33608 1 0 ack 40 ------- 1 2.0 0.0 5 24
r 0.33608 3 0 ack 40 ------- 2 3.0 1.0 5 25
+ 0.33608 0 1 ack 40 ------- 2 3.0 1.0 5 25
- 0.33608 0 1 ack 40 ------- 2 3.0 1.0 5 25
r 0.33792 1 0 ack 40 ------- 1 2.0 0.0 3 20
+ 0.33792 0 1 tcp 1040 ------- 1 0.0 2.0 7 28
- 0.33792 0 1 tcp 1040 ------- 1 0.0 2.0 7 28
+ 0.33792 0 1 tcp 1040 ------- 1 0.0 2.0 8 29
r 0.33792 0 1 ack 40 ------- 2 3.0 1.0 3 21
+ 0.33792 1 0 tcp 1040 ------- 2 1.0 3.0 7 30
- 0.33792 1 0 tcp 1040 ------- 2 1.0 3.0 7 30
+ 0.33792 1 0 tcp 1040 ------- 2 1.0 3.0 8 31
r 0.34024 2 1 ack 40 ------- 1 2.0 0.0 6 26
+ 0.34024 1 0 ack 40 ------- 1 2.0 0.0 6 26
r 0.34024 3 0 ack 40 ------- 2 3.0 1.0 6 27
+ 0.34024 0 1 ack 40 ------- 2 3.0 1.0 6 27
r 0.34208 1 0 ack 40 ------- 1 2.0 0.0 4 22
+ 0.34208 0 1 tcp 1040 ------- 1 0.0 2.0 9 32
+ 0.34208 0 1 tcp 1040 ------- 1 0.0 2.0 10 33
r 0.34208 0 1 ack 40 ------- 2 3.0 1.0 4 23
+ 0.34208 1 0 tcp 1040 ------- 2 1.0 3.0 9 34
+ 0.34208 1 0 tcp 1040 ------- 2 1.0 3.0 10 35
- 0.34208 0 1 tcp 1040 ------- 1 0.0 2.0 8 29
- 0.34208 1 0 tcp 1040 ------- 2 1.0 3.0 8 31
r 0.34624 1 0 ack 40 ------- 1 2.0 0.0 5 24
+ 0.34624 0 1 tcp 1040 ------- 1 0.0 2.0 11 36
+ 0.34624 0 1 tcp 1040 ------- 1 0.0 2.0 12 37
r 0.34624 0 1 ack 40 ------- 2 3.0 1.0 5 25
+ 0.34624 1 0 tcp 1040 ------- 2 1.0 3.0 11 38
+ 0.34624 1 0 tcp 1040 ------- 2 1.0 3.0 12 39
- 0.34624 0 1 ack 40 ------- 2 3.0 1.0 6 27
- 0.34624 1 0 ack 40 ------- 1 2.0 0.0 6 26
- 0.3464 0 1 tcp 1040 ------- 1 0.0 2.0 9 32
- 0.3464 1 0 tcp 1040 ------- 2 1.0 3.0 9 34
- 0.35056 0 1 tcp 1040 ------- 1 0.0 2.0 10 33
- 0.35056 1 0 tcp 1040 ------- 2 1.0 3.0 10 35
r 0.35208 0 1 tcp 1040 ------- 1 0.0 2.0 7 28
+ 0.35208 1 2 tcp 1040 ------- 1 0.0 2.0 7 28
- 0.35208 1 2 tcp 1040 ------- 1 0.0 2.0 7 28
r 0.35208 1 0 tcp 1040 ------- 2 1.0 3.0 7 30
+ 0.35208 0 3 tcp 1040 ------- 2 1.0 3.0 7 30
- 0.35208 0 3 tcp 1040 ------- 2 1.0 3.0 7 30
- 0.35472 0 1 tcp 1040 ------- 1 0.0 2.0 11 36
- 0.35472 1 0 tcp 1040 ------- 2 1.0 3.0 11 38
r 0.35624 0 1 tcp 1040 ------- 1 0.0 2.0 8 29
+ 0.35624 1 2 tcp 1040 ------- 1 0.0 2.0 8 29
r 0.35624 1 0 tcp 1040 ------- 2 1.0 3.0 8 31
+ 0.35624 0 3 tcp 1040 ------- 2 1.0 3.0 8 31
- 0.35624 1 2 tcp 1040 ------- 1 0.0 2.0 8 29
- 0.35624 0 3 tcp 1040 ------- 2 1.0 3.0 8 31
r 0.3564 0 1 ack 40 ------- 2 3.0 1.0 6 27
+ 0.3564 1 0 tcp 1040 ------- 2 1.0 3.0 13 40
+ 0.3564 1 0 tcp 1040 ------- 2 1.0 3.0 14 41
r 0.3564 1 0 ack 40 ------- 1 2.0 0.0 6 26
+ 0.3564 0 1 tcp 1040 ------- 1 0.0 2.0 13 42
+ 0.3564 0 1 tcp 1040 ------- 1 0.0 2.0 14 43
- 0.35888 0 1 tcp 1040 ------- 1 0.0 2.0 12 37
- 0.35888 1 0 tcp 1040 ------- 2 1.0 3.0 12 39
r 0.36056 0 1 tcp 1040 ------- 1 0.0 2.0 9 32
+ 0.36056 1 2 tcp 1040 ------- 1 0.0 2.0 9 32
- 0.36056 1 2 tcp 1040 ------- 1 0.0 2.0 9 32
r 0.36056 1 0 tcp 1040 ------- 2 1.0 3.0 9 34
+ 0.36056 0 3 tcp 1040 ------- 2 1.0 3.0 9 34
- 0.36056 0 3 tcp 1040 ------- 2 1.0 3.0 9 34
- 0.36304 0 1 tcp 1040 ------- 1 0.0 2.0 13 42
- 0.36304 1 0 tcp 1040 ------- 2 1.0 3.0 13 40
r 0.36472 0 1 tcp 1040 ------- 1 0.0 2.0 10 33
+ 0.36472 1 2 tcp 1040 ------- 1 0.0 2.0 10 33
r 0.36472 1 0 tcp 1040 ------- 2 1.0 3.0 10 35
+ 0.36472 0 3 tcp 1040 ------- 2 1.0 3.0 10 35
- 0.36472 1 2 tcp 1040 ------- 1 0.0 2.0 10 33
- 0.36472 0 3 tcp 1040 ------- 2 1.0 3.0 10 35
r 0.36624 1 2 tcp 1040 ------- 1 0.0 2.0 7 28
+ 0.36624 2 1 ack 40 ------- 1 2.0 0.0 7 44
- 0.36624 2 1 ack 40 ------- 1 2.0 0.0 7 44
r 0.36624 0 3 tcp 1040 ------- 2 1.0 3.0 7 30
+ 0.36624 3 0 ack 40 ------- 2 3.0 1.0 7 45
- 0.36624 3 0 ack 40 ------- 2 3.0 1.0 7 45
- 0.3672 0 1 tcp 1040 ------- 1 0.0 2.0 14 43
- 0.3672 1 0 tcp 1040 ------- 2 1.0 3.0 14 41
r 0.36888 0 1 tcp 1040 ------- 1 0.0 2.0 11 36
+ 0.36888 1 2 tcp 1040 ------- 1 0.0 2.0 11 36
r 0.36888 1 0 tcp 1040 ------- 2 1.0 3.0 11 38
+ 0.36888 0 3 tcp 1040 ------- 2 1.0 3.0 11 38
- 0.36888 1 2 tcp 1040 ------- 1 0.0 2.0 11 36
- 0.36888 0 3 tcp 1040 ------- 2 1.0 3.0 11 38
r 0.3704 1 2 tcp 1040 ------- 1 0.0 2.0 8 29
+ 0.3704 2 1 ack 40 ------- 1 2.0 0.0 8 46
- 0.3704 2 1 ack 40 ------- 1 2.0 0.0 8 46
r 0.3704 0 3 tcp 1040 ------- 2 1.0 3.0 8 31
+ 0.3704 3 0 ack 40 ------- 2 3.0 1.0 8 47
- 0.3704 3 0 ack 40 ------- 2 3.0 1.0 8 47
r 0.37304 0 1 tcp 1040 ------- 1 0.0 2.0 12 37
+ 0.37304 1 2 tcp 1040 ------- 1 0.0 2.0 12 37
r 0.37304 1 0 tcp 1040 ------- 2 1.0 3.0 12 39
+ 0.37304 0 3 tcp 1040 ------- 2 1.0 3.0 12 39
- 0.37304 1 2 tcp 1040 ------- 1 0.0 2.0 12 37
- 0.37304 0 3 tcp 1040 ------- 2 1.0 3.0 12 39
r 0.37472 1 2 tcp 1040 ------- 1 0.0 2.0 9 32
+ 0.37472 2 1 ack 40 ------- 1 2.0 0.0 9 48
- 0.37472 2 1 ack 40 ------- 1 2.0 0.0 9 48
r 0.37472 0 3 tcp 1040 ------- 2 1.0 3.0 9 34
+ 0.37472 3 0 ack 40 ------- 2 3.0 1.0 9 49
- 0.37472 3 0 ack 40 ------- 2 3.0 1.0 9 49
r 0.3764 2 1 ack 40 ------- 1 2.0 0.0 7 44
+ 0.3764 1 0 ack 40 ------- 1 2.0 0.0 7 44
- 0.3764 1 0 ack 40 ------- 1 2.0 0.0 7 44
r 0.3764 3 0 ack 40 ------- 2 3.0 1.0 7 45
+ 0.3764 0 1 ack 40 ------- 2 3.0 1.0 7 45
- 0.3764 0 1 ack 40 ------- 2 3.0 1.0 7 45
r 0.3772 0 1 tcp 1040 ------- 1 0.0 2.0 13 42
+ 0.3772 1 2 tcp 1040 ------- 1 0.0 2.0 13 42
r 0.3772 1 0 tcp 1040 ------- 2 1.0 3.0 13 40
+ 0.3772 0 3 tcp 1040 ------- 2 1.0 3.0 13 40
- 0.3772 1 2 tcp 1040 ------- 1 0.0 2.0 13 42
- 0.3772 0 3 tcp 1040 ------- 2 1.0 3.0 13 40
r 0.37888 1 2 tcp 1040 ------- 1 0.0 2.0 10 33
+ 0.37888 2 1 ack 40 ------- 1 2.0 0.0 10 50
- 0.37888 2 1 ack 40 ------- 1 2.0 0.0 10 50
r 0.37888 0 3 tcp 1040 ------- 2 1.0 3.0 10 35
+ 0.37888 3 0 ack 40 ------- 2 3.0 1.0 10 51
- 0.37888 3 0 ack 40 ------- 2 3.0 1.0 10 51
r 0.38056 2 1 ack 40 ------- 1 2.0 0.0 8 46
+ 0.38056 1 0 ack 40 ------- 1 2.0 0.0 8 46
- 0.38056 1 0 ack 40 ------- 1 2.0 0.0 8 46
r 0.38056 3 0 ack 40 ------- 2 3.0 1.0 8 47
+ 0.38056 0 1 ack 40 ------- 2 3.0 1.0 8 47
- 0.38056 0 1 ack 40 ------- 2 3.0 1.0 8 47
r 0.38136 0 1 tcp 1040 ------- 1 0.0 2.0 14 43
+ 0.38136 1 2 tcp 1040 ------- 1 0.0 2.0 14 43
r 0.38136 1 0 tcp 1040 ------- 2 1.0 3.0 14 41
+ 0.38136 0 3 tcp 1040 ------- 2 1.0 3.0 14 41
- 0.38136 1 2 tcp 1040 ------- 1 0.0 2.0 14 43
- 0.38136 0 3 tcp 1040 ------- 2 1.0 3.0 14 41
r 0.38304 1 2 tcp 1040 ------- 1 0.0 2.0 11 36
+ 0.38304 2 1 ack 40 ------- 1 2.0 0.0 11 52
- 0.38304 2 1 ack 40 ------- 1 2.0 0.0 11 52
r 0.38304 0 3 tcp 1040 ------- 2 1.0 3.0 11 38
+ 0.38304 3 0 ack 40 ------- 2 3.0 1.0 11 53
- 0.38304 3 0 ack 40 ------- 2 3.0 1.0 11 53
r 0.38488 2 1 ack 40 ------- 1 2.0 0.0 9 48
+ 0.38488 1 0 ack 40 ------- 1 2.0 0.0 9 48
- 0.38488 1 0 ack 40 ------- 1 2.0 0.0 9 48
r 0.38488 3 0 ack 40 ------- 2 3.0 1.0 9 49
+ 0.38488 0 1 ack 40 ------- 2 3.0 1.0 9 49
- 0.38488 0 1 ack 40 ------- 2 3.0 1.0 9 49
r 0.38656 1 0 ack 40 ------- 1 2.0 0.0 7 44
+ 0.38656 0 1 tcp 1040 ------- 1 0.0 2.0 15 54
- 0.38656 0 1 tcp 1040 ------- 1 0.0 2.0 15 54
+ 0.38656 0 1 tcp 1040 ------- 1 0.0 2.0 16 55
r 0.38656 0 1 ack 40 ------- 2 3.0 1.0 7 45
+ 0.38656 1 0 tcp 1040 ------- 2 1.0 3.0 15 56
- 0.38656 1 0 tcp 1040 ------- 2 1.0 3.0 15 56
+ 0.38656 1 0 tcp 1040 ------- 2 1.0 3.0 16 57
r 0.3872 1 2 tcp 1040 ------- 1 0.0 2.0 12 37
+ 0.3872 2 1 ack 40 ------- 1 2.0 0.0 12 58
- 0.3872 2 1 ack 40 ------- 1 2.0 0.0 12 58
r 0.3872 0 3 tcp 1040 ------- 2 1.0 3.0 12 39
+ 0.3872 3 0 ack 40 ------- 2 3.0 1.0 12 59
- 0.3872 3 0 ack 40 ------- 2 3.0 1.0 12 59
r 0.38904 2 1 ack 40 ------- 1 2.0 0.0 10 50
+ 0.38904 1 0 ack 40 ------- 1 2.0 0.0 10 50
r 0.38904 3 0 ack 40 ------- 2 3.0 1.0 10 51
+ 0.38904 0 1 ack 40 ------- 2 3.0 1.0 10 51
r 0.39072 1 0 ack 40 ------- 1 2.0 0.0 8 46
+ 0.39072 0 1 tcp 1040 ------- 1 0.0 2.0 17 60
+ 0.39072 0 1 tcp 1040 ------- 1 0.0 2.0 18 61
r 0.39072 0 1 ack 40 ------- 2 3.0 1.0 8 47
+ 0.39072 1 0 tcp 1040 ------- 2 1.0 3.0 17 62
+ 0.39072 1 0 tcp 1040 ------- 2 1.0 3.0 18 63
- 0.39072 0 1 tcp 1040 ------- 1 0.0 2.0 16 55
- 0.39072 1 0 tcp 1040 ------- 2 1.0 3.0 16 57
r 0.39136 1 2 tcp 1040 ------- 1 0.0 2.0 13 42
+ 0.39136 2 1 ack 40 ------- 1 2.0 0.0 13 64
- 0.39136 2 1 ack 40 ------- 1 2.0 0.0 13 64
r 0.39136 0 3 tcp 1040 ------- 2 1.0 3.0 13 40
+ 0.39136 3 0 ack 40 ------- 2 3.0 1.0 13 65
- 0.39136 3 0 ack 40 ------- 2 3.0 1.0 13 65
r 0.3932 2 1 ack 40 ------- 1 2.0 0.0 11 52
+ 0.3932 1 0 ack 40 ------- 1 2.0 0.0 11 52
r 0.3932 3 0 ack 40 ------- 2 3.0 1.0 11 53
+ 0.3932 0 1 ack 40 ------- 2 3.0 1.0 11 53
- 0.39488 0 1 ack 40 ------- 2 3.0 1.0 10 51
- 0.39488 1 0 ack 40 ------- 1 2.0 0.0 10 50
r 0.39504 1 0 ack 40 ------- 1 2.0 0.0 9 48
+ 0.39504 0 1 tcp 1040 ------- 1 0.0 2.0 19 66
+ 0.39504 0 1 tcp 1040 ------- 1 0.0 2.0 20 67
r 0.39504 0 1 ack 40 ------- 2 3.0 1.0 9 49
+ 0.39504 1 0 tcp 1040 ------- 2 1.0 3.0 19 68
+ 0.39504 1 0 tcp 1040 ------- 2 1.0 3.0 20 69
- 0.39504 0 1 tcp 1040 ------- 1 0.0 2.0 17 60
- 0.39504 1 0 tcp 1040 ------- 2 1.0 3.0 17 62
r 0.39552 1 2 tcp 1040 ------- 1 0.0 2.0 14 43
+ 0.39552 2 1 ack 40 ------- 1 2.0 0.0 14 70
- 0.39552 2 1 ack 40 ------- 1 2.0 0.0 14 70
r 0.39552 0 3 tcp 1040 ------- 2 1.0 3.0 14 41
+ 0.39552 3 0 ack 40 ------- 2 3.0 1.0 14 71
- 0.39552 3 0 ack 40 ------- 2 3.0 1.0 14 71
r 0.39736 2 1 ack 40 ------- 1 2.0 0.0 12 58
+ 0.39736 1 0 ack 40 ------- 1 2.0 0.0 12 58
r 0.39736 3 0 ack 40 ------- 2 3.0 1.0 12 59
+ 0.39736 0 1 ack 40 ------- 2 3.0 1.0 12 59
- 0.3992 0 1 tcp 1040 ------- 1 0.0 2.0 18 61
- 0.3992 1 0 tcp 1040 ------- 2 1.0 3.0 18 63
r 0.40072 0 1 tcp 1040 ------- 1 0.0 2.0 15 54
+ 0.40072 1 2 tcp 1040 ------- 1 0.0 2.0 15 54
- 0.40072 1 2 tcp 1040 ------- 1 0.0 2.0 15 54
r 0.40072 1 0 tcp 1040 ------- 2 1.0 3.0 15 56
+ 0.40072 0 3 tcp 1040 ------- 2 1.0 3.0 15 56
- 0.40072 0 3 tcp 1040 ------- 2 1.0 3.0 15 56
r 0.40152 2 1 ack 40 ------- 1 2.0 0.0 13 64
+ 0.40152 1 0 ack 40 ------- 1 2.0 0.0 13 64
r 0.40152 3 0 ack 40 ------- 2 3.0 1.0 13 65
+ 0.40152 0 1 ack 40 ------- 2 3.0 1.0 13 65
- 0.40336 0 1 ack 40 ------- 2 3.0 1.0 11 53
- 0.40336 1 0 ack 40 ------- 1 2.0 0.0 11 52
- 0.40352 0 1 tcp 1040 ------- 1 0.0 2.0 19 66
- 0.40352 1 0 tcp 1040 ------- 2 1.0 3.0 19 68
r 0.40488 0 1 tcp 1040 ------- 1 0.0 2.0 16 55
+ 0.40488 1 2 tcp 1040 ------- 1 0.0 2.0 16 55
r 0.40488 1 0 tcp 1040 ------- 2 1.0 3.0 16 57
+ 0.40488 0 3 tcp 1040 ------- 2 1.0 3.0 16 57
- 0.40488 1 2 tcp 1040 ------- 1 0.0 2.0 16 55
- 0.40488 0 3 tcp 1040 ------- 2 1.0 3.0 16 57
r 0.40504 0 1 ack 40 ------- 2 3.0 1.0 10 51
+ 0.40504 1 0 tcp 1040 ------- 2 1.0 3.0 21 72
+ 0.40504 1 0 tcp 1040 ------- 2 1.0 3.0 22 73
r 0.40504 1 0 ack 40 ------- 1 2.0 0.0 10 50
+ 0.40504 0 1 tcp 1040 ------- 1 0.0 2.0 21 74
+ 0.40504 0 1 tcp 1040 ------- 1 0.0 2.0 22 75
r 0.40568 2 1 ack 40 ------- 1 2.0 0.0 14 70
+ 0.40568 1 0 ack 40 ------- 1 2.0 0.0 14 70
r 0.40568 3 0 ack 40 ------- 2 3.0 1.0 14 71
+ 0.40568 0 1 ack 40 ------- 2 3.0 1.0 14 71
- 0.40768 0 1 tcp 1040 ------- 1 0.0 2.0 20 67
- 0.40768 1 0 tcp 1040 ------- 2 1.0 3.0 20 69
r 0.4092 0 1 tcp 1040 ------- 1 0.0 2.0 17 60
+ 0.4092 1 2 tcp 1040 ------- 1 0.0 2.0 17 60
- 0.4092 1 2 tcp 1040 ------- 1 0.0 2.0 17 60
r 0.4092 1 0 tcp 1040 ------- 2 1.0 3.0 17 62
+ 0.4092 0 3 tcp 1040 ------- 2 1.0 3.0 17 62
- 0.4092 0 3 tcp 1040 ------- 2 1.0 3.0 17 62
- 0.41184 0 1 ack 40 ------- 2 3.0 1.0 12 59
- 0.41184 1 0 ack 40 ------- 1 2.0 0.0 12 58
- 0.412 0 1 ack 40 ------- 2 3.0 1.0 13 65
- 0.412 1 0 ack 40 ------- 1 2.0 0.0 13 64
- 0.41216 0 1 tcp 1040 ------- 1 0.0 2.0 21 74
- 0.41216 1 0 tcp 1040 ------- 2 1.0 3.0 21 72
r 0.41336 0 1 tcp 1040 ------- 1 0.0 2.0 18 61
+ 0.41336 1 2 tcp 1040 ------- 1 0.0 2.0 18 61
r 0.41336 1 0 tcp 1040 ------- 2 1.0 3.0 18 63
+ 0.41336 0 3 tcp 1040 ------- 2 1.0 3.0 18 63
- 0.41336 1 2 tcp 1040 ------- 1 0.0 2.0 18 61
- 0.41336 0 3 tcp 1040 ------- 2 1.0 3.0 18 63
r 0.41352 0 1 ack 40 ------- 2 3.0 1.0 11 53
+ 0.41352 1 0 tcp 1040 ------- 2 1.0 3.0 23 76
+ 0.41352 1 0 tcp 1040 ------- 2 1.0 3.0 24 77
r 0.41352 1 0 ack 40 ------- 1 2.0 0.0 11 52
+ 0.41352 0 1 tcp 1040 ------- 1 0.0 2.0 23 78
+ 0.41352 0 1 tcp 1040 ------- 1 0.0 2.0 24 79
r 0.41488 1 2 tcp 1040 ------- 1 0.0 2.0 15 54
+ 0.41488 2 1 ack 40 ------- 1 2.0 0.0 15 80
- 0.41488 2 1 ack 40 ------- 1 2.0 0.0 15 80
r 0.41488 0 3 tcp 1040 ------- 2 1.0 3.0 15 56
+ 0.41488 3 0 ack 40 ------- 2 3.0 1.0 15 81
- 0.41488 3 0 ack 40 ------- 2 3.0 1.0 15 81
- 0.41632 0 1 tcp 1040 ------- 1 0.0 2.0 22 75
- 0.41632 1 0 tcp 1040 ------- 2 1.0 3.0 22 73
r 0.41768 0 1 tcp 1040 ------- 1 0.0 2.0 19 66
+ 0.41768 1 2 tcp 1040 ------- 1 0.0 2.0 19 66
- 0.41768 1 2 tcp 1040 ------- 1 0.0 2.0 19 66
r 0.41768 1 0 tcp 1040 ------- 2 1.0 3.0 19 68
+ 0.41768 0 3 tcp 1040 ------- 2 1.0 3.0 19 68
- 0.41768 0 3 tcp 1040 ------- 2 1.0 3.0 19 68
r 0.41904 1 2 tcp 1040 ------- 1 0.0 2.0 16 55
+ 0.41904 2 1 ack 40 ------- 1 2.0 0.0 16 82
- 0.41904 2 1 ack 40 ------- 1 2.0 0.0 16 82
r 0.41904 0 3 tcp 1040 ------- 2 1.0 3.0 16 57
+ 0.41904 3 0 ack 40 ------- 2 3.0 1.0 16 83
- 0.41904 3 0 ack 40 ------- 2 3.0 1.0 16 83
- 0.42048 0 1 ack 40 ------- 2 3.0 1.0 14 71
- 0.42048 1 0 ack 40 ------- 1 2.0 0.0 14 70
- 0.42064 0 1 tcp 1040 ------- 1 0.0 2.0 23 78
- 0.42064 1 0 tcp 1040 ------- 2 1.0 3.0 23 76
r 0.42184 0 1 tcp 1040 ------- 1 0.0 2.0 20 67
+ 0.42184 1 2 tcp 1040 ------- 1 0.0 2.0 20 67
r 0.42184 1 0 tcp 1040 ------- 2 1.0 3.0 20 69
+ 0.42184 0 3 tcp 1040 ------- 2 1.0 3.0 20 69
- 0.42184 1 2 tcp 1040 ------- 1 0.0 2.0 20 67
- 0.42184 0 3 tcp 1040 ------- 2 1.0 3.0 20 69
r 0.422 0 1 ack 40 ------- 2 3.0 1.0 12 59
+ 0.422 1 0 tcp 1040 ------- 2 1.0 3.0 25 84
+ 0.422 1 0 tcp 1040 ------- 2 1.0 3.0 26 85
r 0.422 1 0 ack 40 ------- 1 2.0 0.0 12 58
+ 0.422 0 1 tcp 1040 ------- 1 0.0 2.0 25 86
+ 0.422 0 1 tcp 1040 ------- 1 0.0 2.0 26 87
r 0.42216 0 1 ack 40 ------- 2 3.0 1.0 13 65
+ 0.42216 1 0 tcp 1040 ------- 2 1.0 3.0 27 88
+ 0.42216 1 0 tcp 1040 ------- 2 1.0 3.0 28 89
r 0.42216 1 0 ack 40 ------- 1 2.0 0.0 13 64
+ 0.42216 0 1 tcp 1040 ------- 1 0.0 2.0 27 90
+ 0.42216 0 1 tcp 1040 ------- 1 0.0 2.0 28 91
r 0.42336 1 2 tcp 1040 ------- 1 0.0 2.0 17 60
+ 0.42336 2 1 ack 40 ------- 1 2.0 0.0 17 92
- 0.42336 2 1 ack 40 ------- 1 2.0 0.0 17 92
r 0.42336 0 3 tcp 1040 ------- 2 1.0 3.0 17 62
+ 0.42336 3 0 ack 40 ------- 2 3.0 1.0 17 93
- 0.42336 3 0 ack 40 ------- 2 3.0 1.0 17 93
- 0.4248 0 1 tcp 1040 ------- 1 0.0 2.0 24 79
- 0.4248 1 0 tcp 1040 ------- 2 1.0 3.0 24 77
r 0.42504 2 1 ack 40 ------- 1 2.0 0.0 15 80
+ 0.42504 1 0 ack 40 ------- 1 2.0 0.0 15 80
r 0.42504 3 0 ack 40 ------- 2 3.0 1.0 15 81
+ 0.42504 0 1 ack 40 ------- 2 3.0 1.0 15 81
r 0.42632 0 1 tcp 1040 ------- 1 0.0 2.0 21 74
+ 0.42632 1 2 tcp 1040 ------- 1 0.0 2.0 21 74
- 0.42632 1 2 tcp 1040 ------- 1 0.0 2.0 21 74
r 0.42632 1 0 tcp 1040 ------- 2 1.0 3.0 21 72
+ 0.42632 0 3 tcp 1040 ------- 2 1.0 3.0 21 72
- 0.42632 0 3 tcp 1040 ------- 2 1.0 3.0 21 72
r 0.42752 1 2 tcp 1040 ------- 1 0.0 2.0 18 61
+ 0.42752 2 1 ack 40 ------- 1 2.0 0.0 18 94
- 0.42752 2 1 ack 40 ------- 1 2.0 0.0 18 94
r 0.42752 0 3 tcp 1040 ------- 2 1.0 3.0 18 63
+ 0.42752 3 0 ack 40 ------- 2 3.0 1.0 18 95
- 0.42752 3 0 ack 40 ------- 2 3.0 1.0 18 95
- 0.42896 0 1 tcp 1040 ------- 1 0.0 2.0 25 86
- 0.42896 1 0 tcp 1040 ------- 2 1.0 3.0 25 84
r 0.4292 2 1 ack 40 ------- 1 2.0 0.0 16 82
+ 0.4292 1 0 ack 40 ------- 1 2.0 0.0 16 82
r 0.4292 3 0 ack 40 ------- 2 3.0 1.0 16 83
+ 0.4292 0 1 ack 40 ------- 2 3.0 1.0 16 83
r 0.43048 0 1 tcp 1040 ------- 1 0.0 2.0 22 75
+ 0.43048 1 2 tcp 1040 ------- 1 0.0 2.0 22 75
r 0.43048 1 0 tcp 1040 ------- 2 1.0 3.0 22 73
+ 0.43048 0 3 tcp 1040 ------- 2 1.0 3.0 22 73
- 0.43048 1 2 tcp 1040 ------- 1 0.0 2.0 22 75
- 0.43048 0 3 tcp 1040 ------- 2 1.0 3.0 22 73
r 0.43064 0 1 ack 40 ------- 2 3.0 1.0 14 71
+ 0.43064 1 0 tcp 1040 ------- 2 1.0 3.0 29 96
+ 0.43064 1 0 tcp 1040 ------- 2 1.0 3.0 30 97
r 0.43064 1 0 ack 40 ------- 1 2.0 0.0 14 70
+ 0.43064 0 1 tcp 1040 ------- 1 0.0 2.0 29 98
+ 0.43064 0 1 tcp 1040 ------- 1 0.0 2.0 30 99
r 0.43184 1 2 tcp 1040 ------- 1 0.0 2.0 19 66
+ 0.43184 2 1 ack 40 ------- 1 2.0 0.0 19 100
- 0.43184 2 1 ack 40 ------- 1 2.0 0.0 19 100
r 0.43184 0 3 tcp 1040 ------- 2 1.0 3.0 19 68
+ 0.43184 3 0 ack 40 ------- 2 3.0 1.0 19 101
- 0.43184 3 0 ack 40 ------- 2 3.0 1.0 19 101
- 0.43312 0 1 tcp 1040 ------- 1 0.0 2.0 26 87
- 0.43312 1 0 tcp 1040 ------- 2 1.0 3.0 26 85
r 0.43352 2 1 ack 40 ------- 1 2.0 0.0 17 92
+ 0.43352 1 0 ack 40 ------- 1 2.0 0.0 17 92
r 0.43352 3 0 ack 40 ------- 2 3.0 1.0 17 93
+ 0.43352 0 1 ack 40 ------- 2 3.0 1.0 17 93
r 0.4348 0 1 tcp 1040 ------- 1 0.0 2.0 23 78
+ 0.4348 1 2 tcp 1040 ------- 1 0.0 2.0 23 78
- 0.4348 1 2 tcp 1040 ------- 1 0.0 2.0 23 78
r 0.4348 1 0 tcp 1040 ------- 2 1.0 3.0 23 76
+ 0.4348 0 3 tcp 1040 ------- 2 1.0 3.0 23 76
- 0.4348 0 3 tcp 1040 ------- 2 1.0 3.0 23 76
r 0.436 1 2 tcp 1040 ------- 1 0.0 2.0 20 67
+ 0.436 2 1 ack 40 ------- 1 2.0 0.0 20 102
- 0.436 2 1 ack 40 ------- 1 2.0 0.0 20 102
r 0.436 0 3 tcp 1040 ------- 2 1.0 3.0 20 69
+ 0.436 3 0 ack 40 ------- 2 3.0 1.0 20 103
- 0.436 3 0 ack 40 ------- 2 3.0 1.0 20 103
- 0.43728 0 1 tcp 1040 ------- 1 0.0 2.0 27 90
- 0.43728 1 0 tcp 1040 ------- 2 1.0 3.0 27 88
r 0.43768 2 1 ack 40 ------- 1 2.0 0.0 18 94
+ 0.43768 1 0 ack 40 ------- 1 2.0 0.0 18 94
r 0.43768 3 0 ack 40 ------- 2 3.0 1.0 18 95
+ 0.43768 0 1 ack 40 ------- 2 3.0 1.0 18 95
r 0.43896 0 1 tcp 1040 ------- 1 0.0 2.0 24 79
+ 0.43896 1 2 tcp 1040 ------- 1 0.0 2.0 24 79
r 0.43896 1 0 tcp 1040 ------- 2 1.0 3.0 24 77
+ 0.43896 0 3 tcp 1040 ------- 2 1.0 3.0 24 77
- 0.43896 1 2 tcp 1040 ------- 1 0.0 2.0 24 79
- 0.43896 0 3 tcp 1040 ------- 2 1.0 3.0 24 77
r 0.44048 1 2 tcp 1040 ------- 1 0.0 2.0 21 74
+ 0.44048 2 1 ack 40 ------- 1 2.0 0.0 21 104
- 0.44048 2 1 ack 40 ------- 1 2.0 0.0 21 104
r 0.44048 0 3 tcp 1040 ------- 2 1.0 3.0 21 72
+ 0.44048 3 0 ack 40 ------- 2 3.0 1.0 21 105
- 0.44048 3 0 ack 40 ------- 2 3.0 1.0 21 105
- 0.44144 0 1 tcp 1040 ------- 1 0.0 2.0 28 91
- 0.44144 1 0 tcp 1040 ------- 2 1.0 3.0 28 89
r 0.442 2 1 ack 40 ------- 1 2.0 0.0 19 100
+ 0.442 1 0 ack 40 ------- 1 2.0 0.0 19 100
r 0.442 3 0 ack 40 ------- 2 3.0 1.0 19 101
+ 0.442 0 1 ack 40 ------- 2 3.0 1.0 19 101
r 0.44312 0 1 tcp 1040 ------- 1 0.0 2.0 25 86
+ 0.44312 1 2 tcp 1040 ------- 1 0.0 2.0 25 86
r 0.44312 1 0 tcp 1040 ------- 2 1.0 3.0 25 84
+ 0.44312 0 3 tcp 1040 ------- 2 1.0 3.0 25 84
- 0.44312 1 2 tcp 1040 ------- 1 0.0 2.0 25 86
- 0.44312 0 3 tcp 1040 ------- 2 1.0 3.0 25 84
r 0.44464 1 2 tcp 1040 ------- 1 0.0 2.0 22 75
+ 0.44464 2 1 ack 40 ------- 1 2.0 0.0 22 106
- 0.44464 2 1 ack 40 ------- 1 2.0 0.0 22 106
r 0.44464 0 3 tcp 1040 ------- 2 1.0 3.0 22 73
+ 0.44464 3 0 ack 40 ------- 2 3.0 1.0 22 107
- 0.44464 3 0 ack 40 ------- 2 3.0 1.0 22 107
- 0.4456 0 1 ack 40 ------- 2 3.0 1.0 15 81
- 0.4456 1 0 ack 40 ------- 1 2.0 0.0 15 80
- 0.44576 0 1 ack 40 ------- 2 3.0 1.0 16 83
- 0.44576 1 0 ack 40 ------- 1 2.0 0.0 16 82
- 0.44592 0 1 tcp 1040 ------- 1 0.0 2.0 29 98
- 0.44592 1 0 tcp 1040 ------- 2 1.0 3.0 29 96
r 0.44616 2 1 ack 40 ------- 1 2.0 0.0 20 102
+ 0.44616 1 0 ack 40 ------- 1 2.0 0.0 20 102
r 0.44616 3 0 ack 40 ------- 2 3.0 1.0 20 103
+ 0.44616 0 1 ack 40 ------- 2 3.0 1.0 20 103
r 0.44728 0 1 tcp 1040 ------- 1 0.0 2.0 26 87
+ 0.44728 1 2 tcp 1040 ------- 1 0.0 2.0 26 87
r 0.44728 1 0 tcp 1040 ------- 2 1.0 3.0 26 85
+ 0.44728 0 3 tcp 1040 ------- 2 1.0 3.0 26 85
- 0.44728 1 2 tcp 1040 ------- 1 0.0 2.0 26 87
- 0.44728 0 3 tcp 1040 ------- 2 1.0 3.0 26 85
r 0.44896 1 2 tcp 1040 ------- 1 0.0 2.0 23 78
+ 0.44896 2 1 ack 40 ------- 1 2.0 0.0 23 108
- 0.44896 2 1 ack 40 ------- 1 2.0 0.0 23 108
r 0.44896 0 3 tcp 1040 ------- 2 1.0 3.0 23 76
+ 0.44896 3 0 ack 40 ------- 2 3.0 1.0 23 109
- 0.44896 3 0 ack 40 ------- 2 3.0 1.0 23 109
- 0.45008 0 1 tcp 1040 ------- 1 0.0 2.0 30 99
- 0.45008 1 0 tcp 1040 ------- 2 1.0 3.0 30 97
r 0.45064 2 1 ack 40 ------- 1 2.0 0.0 21 104
+ 0.45064 1 0 ack 40 ------- 1 2.0 0.0 21 104
r 0.45064 3 0 ack 40 ------- 2 3.0 1.0 21 105
+ 0.45064 0 1 ack 40 ------- 2 3.0 1.0 21 105
r 0.45144 0 1 tcp 1040 ------- 1 0.0 2.0 27 90
+ 0.45144 1 2 tcp 1040 ------- 1 0.0 2.0 27 90
r 0.45144 1 0 tcp 1040 ------- 2 1.0 3.0 27 88
+ 0.45144 0 3 tcp 1040 ------- 2 1.0 3.0 27 88
- 0.45144 1 2 tcp 1040 ------- 1 0.0 2.0 27 90
- 0.45144 0 3 tcp 1040 ------- 2 1.0 3.0 27 88
r 0.45312 1 2 tcp 1040 ------- 1 0.0 2.0 24 79
+ 0.45312 2 1 ack 40 ------- 1 2.0 0.0 24 110
- 0.45312 2 1 ack 40 ------- 1 2.0 0.0 24 110
r 0.45312 0 3 tcp 1040 ------- 2 1.0 3.0 24 77
+ 0.45312 3 0 ack 40 ------- 2 3.0 1.0 24 111
- 0.45312 3 0 ack 40 ------- 2 3.0 1.0 24 111
- 0.45424 0 1 ack 40 ------- 2 3.0 1.0 17 93
- 0.45424 1 0 ack 40 ------- 1 2.0 0.0 17 92
- 0.4544 0 1 ack 40 ------- 2 3.0 1.0 18 95
- 0.4544 1 0 ack 40 ------- 1 2.0 0.0 18 94
- 0.45456 0 1 ack 40 ------- 2 3.0 1.0 19 101
- 0.45456 1 0 ack 40 ------- 1 2.0 0.0 19 100
- 0.45472 0 1 ack 40 ------- 2 3.0 1.0 20 103
- 0.45472 1 0 ack 40 ------- 1 2.0 0.0 20 102
r 0.4548 2 1 ack 40 ------- 1 2.0 0.0 22 106
+ 0.4548 1 0 ack 40 ------- 1 2.0 0.0 22 106
r 0.4548 3 0 ack 40 ------- 2 3.0 1.0 22 107
+ 0.4548 0 1 ack 40 ------- 2 3.0 1.0 22 107
- 0.45488 0 1 ack 40 ------- 2 3.0 1.0 21 105
- 0.45488 1 0 ack 40 ------- 1 2.0 0.0 21 104
- 0.45504 0 1 ack 40 ------- 2 3.0 1.0 22 107
- 0.45504 1 0 ack 40 ------- 1 2.0 0.0 22 106
r 0.4556 0 1 tcp 1040 ------- 1 0.0 2.0 28 91
+ 0.4556 1 2 tcp 1040 ------- 1 0.0 2.0 28 91
r 0.4556 1 0 tcp 1040 ------- 2 1.0 3.0 28 89
+ 0.4556 0 3 tcp 1040 ------- 2 1.0 3.0 28 89
- 0.4556 1 2 tcp 1040 ------- 1 0.0 2.0 28 91
- 0.4556 0 3 tcp 1040 ------- 2 1.0 3.0 28 89
r 0.45576 0 1 ack 40 ------- 2 3.0 1.0 15 81
+ 0.45576 1 0 tcp 1040 ------- 2 1.0 3.0 31 112
- 0.45576 1 0 tcp 1040 ------- 2 1.0 3.0 31 112
+ 0.45576 1 0 tcp 1040 ------- 2 1.0 3.0 32 113
r 0.45576 1 0 ack 40 ------- 1 2.0 0.0 15 80
+ 0.45576 0 1 tcp 1040 ------- 1 0.0 2.0 31 114
- 0.45576 0 1 tcp 1040 ------- 1 0.0 2.0 31 114
+ 0.45576 0 1 tcp 1040 ------- 1 0.0 2.0 32 115
r 0.45592 0 1 ack 40 ------- 2 3.0 1.0 16 83
+ 0.45592 1 0 tcp 1040 ------- 2 1.0 3.0 33 116
+ 0.45592 1 0 tcp 1040 ------- 2 1.0 3.0 34 117
r 0.45592 1 0 ack 40 ------- 1 2.0 0.0 16 82
+ 0.45592 0 1 tcp 1040 ------- 1 0.0 2.0 33 118
+ 0.45592 0 1 tcp 1040 ------- 1 0.0 2.0 34 119
r 0.45728 1 2 tcp 1040 ------- 1 0.0 2.0 25 86
+ 0.45728 2 1 ack 40 ------- 1 2.0 0.0 25 120
- 0.45728 2 1 ack 40 ------- 1 2.0 0.0 25 120
r 0.45728 0 3 tcp 1040 ------- 2 1.0 3.0 25 84
+ 0.45728 3 0 ack 40 ------- 2 3.0 1.0 25 121
- 0.45728 3 0 ack 40 ------- 2 3.0 1.0 25 121
r 0.45912 2 1 ack 40 ------- 1 2.0 0.0 23 108
+ 0.45912 1 0 ack 40 ------- 1 2.0 0.0 23 108
r 0.45912 3 0 ack 40 ------- 2 3.0 1.0 23 109
+ 0.45912 0 1 ack 40 ------- 2 3.0 1.0 23 109
- 0.45992 1 0 tcp 1040 ------- 2 1.0 3.0 32 113
- 0.45992 0 1 tcp 1040 ------- 1 0.0 2.0 32 115
r 0.46008 0 1 tcp 1040 ------- 1 0.0 2.0 29 98
+ 0.46008 1 2 tcp 1040 ------- 1 0.0 2.0 29 98
- 0.46008 1 2 tcp 1040 ------- 1 0.0 2.0 29 98
r 0.46008 1 0 tcp 1040 ------- 2 1.0 3.0 29 96
+ 0.46008 0 3 tcp 1040 ------- 2 1.0 3.0 29 96
- 0.46008 0 3 tcp 1040 ------- 2 1.0 3.0 29 96
r 0.46144 1 2 tcp 1040 ------- 1 0.0 2.0 26 87
+ 0.46144 2 1 ack 40 ------- 1 2.0 0.0 26 122
- 0.46144 2 1 ack 40 ------- 1 2.0 0.0 26 122
r 0.46144 0 3 tcp 1040 ------- 2 1.0 3.0 26 85
+ 0.46144 3 0 ack 40 ------- 2 3.0 1.0 26 123
- 0.46144 3 0 ack 40 ------- 2 3.0 1.0 26 123
r 0.46328 2 1 ack 40 ------- 1 2.0 0.0 24 110
+ 0.46328 1 0 ack 40 ------- 1 2.0 0.0 24 110
r 0.46328 3 0 ack 40 ------- 2 3.0 1.0 24 111
+ 0.46328 0 1 ack 40 ------- 2 3.0 1.0 24 111