V -t * -v 1.0a5 -a 0
A -t * -n 1 -p 0 -o 0x7fffffff -c 30 -a 1
A -t * -h 1 -m 1073741823 -s 0
c -t * -i 1 -n Blue
c -t * -i 2 -n Red
c -t * -i 3 -n Yellow
n -t * -a 0 -s 0 -S UP -v circle -c black -i black
n -t * -a 1 -s 1 -S UP -v circle -c black -i black
n -t * -a 2 -s 2 -S UP -v circle -c black -i black
n -t * -a 3 -s 3 -S UP -v circle -c black -i black
l -t * -s 0 -d 1 -S UP -r 2000000 -D 0.01 -c black -o up
l -t * -s 0 -d 2 -S UP -r 2000000 -D 0.01 -c black -o left-down
l -t * -s 0 -d 3 -S UP -r 2000000 -D 0.01 -c black -o right-down
+ -t 0.2 -s 0 -d 1 -p tcp -e 40 -c 1 -i 0 -a 1 -x {0.0 1.0 0 ------- null}
- -t 0.2 -s 0 -d 1 -p tcp -e 40 -c 1 -i 0 -a 1 -x {0.0 1.0 0 ------- null}
h -t 0.2 -s 0 -d 1 -p tcp -e 40 -c 1 -i 0 -a 1 -x {0.0 1.0 -1 ------- null}
+ -t 0.2 -s 0 -d 3 -p tcp -e 40 -c 2 -i 1 -a 2 -x {0.1 3.0 0 ------- null}
- -t 0.2 -s 0 -d 3 -p tcp -e 40 -c 2 -i 1 -a 2 -x {0.1 3.0 0 ------- null}
h -t 0.2 -s 0 -d 3 -p tcp -e 40 -c 2 -i 1 -a 2 -x {0.1 3.0 -1 ------- null}
r -t 0.21016 -s 0 -d 1 -p tcp -e 40 -c 1 -i 0 -a 1 -x {0.0 1.0 0 ------- null}
+ -t 0.21016 -s 1 -d 0 -p ack -e 40 -c 1 -i 2 -a 1 -x {1.0 0.0 0 ------- null}
- -t 0.21016 -s 1 -d 0 -p ack -e 40 -c 1 -i 2 -a 1 -x {1.0 0.0 0 ------- null}
h -t 0.21016 -s 1 -d 0 -p ack -e 40 -c 1 -i 2 -a 1 -x {1.0 0.0 -1 ------- null}
r -t 0.21016 -s 0 -d 3 -p tcp -e 40 -c 2 -i 1 -a 2 -x {0.1 3.0 0 ------- null}
+ -t 0.21016 -s 3 -d 0 -p ack -e 40 -c 2 -i 3 -a 2 -x {3.0 0.1 0 ------- null}
- -t 0.21016 -s 3 -d 0 -p ack -e 40 -c 2 -i 3 -a 2 -x {3.0 0.1 0 ------- null}
h -t 0.21016 -s 3 -d 0 -p ack -e 40 -c 2 -i 3 -a 2 -x {3.0 0.1 -1 ------- null}
r -t 0.22032 -s 1 -d 0 -p ack -e 40 -c 1 -i 2 -a 1 -x {1.0 0.0 0 ------- null}
+ -t 0.22032 -s 0 -d 1 -p tcp -e 1040 -c 1 -i 4 -a 1 -x {0.0 1.0 1 ------- null}
- -t 0.22032 -s 0 -d 1 -p tcp -e 1040 -c 1 -i 4 -a 1 -x {0.0 1.0 1 ------- null}
h -t 0.22032 -s 0 -d 1 -p tcp -e 1040 -c 1 -i 4 -a 1 -x {0.0 1.0 -1 ------- null}
+ -t 0.22032 -s 0 -d 1 -p tcp -e 1040 -c 1 -i 5 -a 1 -x {0.0 1.0 2 ------- null}
r -t 0.22032 -s 3 -d 0 -p ack -e 40 -c 2 -i 3 -a 2 -x {3.0 0.1 0 ------- null}
+ -t 0.22032 -s 0 -d 3 -p tcp -e 1040 -c 2 -i 6 -a 2 -x {0.1 3.0 1 ------- null}
- -t 0.22032 -s 0 -d 3 -p tcp -e 1040 -c 2 -i 6 -a 2 -x {0.1 3.0 1 ------- null}
h -t 0.22032 -s 0 -d 3 -p tcp -e 1040 -c 2 -i 6 -a 2 -x {0.1 3.0 -1 ------- null}
+ -t 0.22032 -s 0 -d 3 -p tcp -e 1040 -c 2 -i 7 -a 2 -x {0.1 3.0 2 ------- null}
- -t 0.22448 -s 0 -d 1 -p tcp -e 1040 -c 1 -i 5 -a 1 -x {0.0 1.0 2 ------- null}
h -t 0.22448 -s 0 -d 1 -p tcp -e 1040 -c 1 -i 5 -a 1 -x {0.0 1.0 -1 ------- null}
- -t 0.22448 -s 0 -d 3 -p tcp -e 1040 -c 2 -i 7 -a 2 -x {0.1 3.0 2 ------- null}
h -t 0.22448 -s 0 -d 3 -p tcp -e 1040 -c 2 -i 7 -a 2 -x {0.1 3.0 -1 ------- null}
r -t 0.23448 -s 0 -d 1 -p tcp -e 1040 -c 1 -i 4 -a 1 -x {0.0 1.0 1 ------- null}
+ -t 0.23448 -s 1 -d 0 -p ack -e 40 -c 1 -i 8 -a 1 -x {1.0 0.0 1 ------- null}
- -t 0.23448 -s 1 -d 0 -p ack -e 40 -c 1 -i 8 -a 1 -x {1.0 0.0 1 ------- null}
h -t 0.23448 -s 1 -d 0 -p ack -e 40 -c 1 -i 8 -a 1 -x {1.0 0.0 -1 ------- null}
r -t 0.23448 -s 0 -d 3 -p tcp -e 1040 -c 2 -i 6 -a 2 -x {0.1 3.0 1 ------- null}
+ -t 0.23448 -s 3 -d 0 -p ack -e 40 -c 2 -i 9 -a 2 -x {3.0 0.1 1 ------- null}
- -t 0.23448 -s 3 -d 0 -p ack -e 40 -c 2 -i 9 -a 2 -x {3.0 0.1 1 ------- null}
h -t 0.23448 -s 3 -d 0 -p ack -e 40 -c 2 -i 9 -a 2 -x {3.0 0.1 -1 ------- null}
r -t 0.23864 -s 0 -d 1 -p tcp -e 1040 -c 1 -i 5 -a 1 -x {0.0 1.0 2 ------- null}
+ -t 0.23864 -s 1 -d 0 -p ack -e 40 -c 1 -i 10 -a 1 -x {1.0 0.0 2 ------- null}
- -t 0.23864 -s 1 -d 0 -p ack -e 40 -c 1 -i 10 -a 1 -x {1.0 0.0 2 ------- null}
h -t 0.23864 -s 1 -d 0 -p ack -e 40 -c 1 -i 10 -a 1 -x {1.0 0.0 -1 ------- null}
r -t 0.23864 -s 0 -d 3 -p tcp -e 1040 -c 2 -i 7 -a 2 -x {0.1 3.0 2 ------- null}
+ -t 0.23864 -s 3 -d 0 -p ack -e 40 -c 2 -i 11 -a 2 -x {3.0 0.1 2 ------- null}
- -t 0.23864 -s 3 -d 0 -p ack -e 40 -c 2 -i 11 -a 2 -x {3.0 0.1 2 ------- null}
h -t 0.23864 -s 3 -d 0 -p ack -e 40 -c 2 -i 11 -a 2 -x {3.0 0.1 -1 ------- null}
r -t 0.24464 -s 1 -d 0 -p ack -e 40 -c 1 -i 8 -a 1 -x {1.0 0.0 1 ------- null}
+ -t 0.24464 -s 0 -d 1 -p tcp -e 1040 -c 1 -i 12 -a 1 -x {0.0 1.0 3 ------- null}
- -t 0.24464 -s 0 -d 1 -p tcp -e 1040 -c 1 -i 12 -a 1 -x {0.0 1.0 3 ------- null}
h -t 0.24464 -s 0 -d 1 -p tcp -e 1040 -c 1 -i 12 -a 1 -x {0.0 1.0 -1 ------- null}
+ -t 0.24464 -s 0 -d 1 -p tcp -e 1040 -c 1 -i 13 -a 1 -x {0.0 1.0 4 ------- null}
r -t 0.24464 -s 3 -d 0 -p ack -e 40 -c 2 -i 9 -a 2 -x {3.0 0.1 1 ------- null}
+ -t 0.24464 -s 0 -d 3 -p tcp -e 1040 -c 2 -i 14 -a 2 -x {0.1 3.0 3 ------- null}
- -t 0.24464 -s 0 -d 3 -p tcp -e 1040 -c 2 -i 14 -a 2 -x {0.1 3.0 3 ------- null}
h -t 0.24464 -s 0 -d 3 -p tcp -e 1040 -c 2 -i 14 -a 2 -x {0.1 3.0 -1 ------- null}
+ -t 0.24464 -s 0 -d 3 -p tcp -e 1040 -c 2 -i 15 -a 2 -x {0.1 3.0 4 ------- null}
r -t 0.2488 -s 1 -d 0 -p ack -e 40 -c 1 -i 10 -a 1 -x {1.0 0.0 2 ------- null}
+ -t 0.2488 -s 0 -d 1 -p tcp -e 1040 -c 1 -i 16 -a 1 -x {0.0 1.0 5 ------- null}
+ -t 0.2488 -s 0 -d 1 -p tcp -e 1040 -c 1 -i 17 -a 1 -x {0.0 1.0 6 ------- null}
r -t 0.2488 -s 3 -d 0 -p ack -e 40 -c 2 -i 11 -a 2 -x {3.0 0.1 2 ------- null}
+ -t 0.2488 -s 0 -d 3 -p tcp -e 1040 -c 2 -i 18 -a 2 -x {0.1 3.0 5 ------- null}
+ -t 0.2488 -s 0 -d 3 -p tcp -e 1040 -c 2 -i 19 -a 2 -x {0.1 3.0 6 ------- null}
- -t 0.2488 -s 0 -d 1 -p tcp -e 1040 -c 1 -i 13 -a 1 -x {0.0 1.0 4 ------- null}
h -t 0.2488 -s 0 -d 1 -p tcp -e 1040 -c 1 -i 13 -a 1 -x {0.0 1.0 -1 ------- null}
- -t 0.2488 -s 0 -d 3 -p tcp -e 1040 -c 2 -i 15 -a 2 -x {0.1 3.0 4 ------- null}
h -t 0.2488 -s 0 -d 3 -p tcp -e 1040 -c 2 -i 15 -a 2 -x {0.1 3.0 -1 ------- null}
- -t 0.25296 -s 0 -d 1 -p tcp -e 1040 -c 1 -i 16 -a 1 -x {0.0 1.0 5 ------- null}
h -t 0.25296 -s 0 -d 1 -p tcp -e 1040 -c 1 -i 16 -a 1 -x {0.0 1.0 -1 ------- null}
- -t 0.25296 -s 0 -d 3 -p tcp -e 1040 -c 2 -i 18 -a 2 -x {0.1 3.0 5 ------- null}
h -t 0.25296 -s 0 -d 3 -p tcp -e 1040 -c 2 -i 18 -a 2 -x {0.1 3.0 -1 ------- null}
- -t 0.25712 -s 0 -d 1 -p tcp -e 1040 -c 1 -i 17 -a 1 -x {0.0 1.0 6 ------- null}
h -t 0.25712 -s 0 -d 1 -p tcp -e 1040 -c 1 -i 17 -a 1 -x {0.0 1.0 -1 ------- null}
- -t 0.25712 -s 0 -d 3 -p tcp -e 1040 -c 2 -i 19 -a 2 -x {0.1 3.0 6 ------- null}
h -t 0.25712 -s 0 -d 3 -p tcp -e 1040 -c 2 -i 19 -a 2 -x {0.1 3.0 -1 ------- null}
r -t 0.2588 -s 0 -d 1 -p tcp -e 1040 -c 1 -i 12 -a 1 -x {0.0 1.0 3 ------- null}
+ -t 0.2588 -s 1 -d 0 -p ack -e 40 -c 1 -i 20 -a 1 -x {1.0 0.0 3 ------- null}
- -t 0.2588 -s 1 -d 0 -p ack -e 40 -c 1 -i 20 -a 1 -x {1.0 0.0 3 ------- null}
h -t 0.2588 -s 1 -d 0 -p ack -e 40 -c 1 -i 20 -a 1 -x {1.0 0.0 -1 ------- null}
r -t 0.2588 -s 0 -d 3 -p tcp -e 1040 -c 2 -i 14 -a 2 -x {0.1 3.0 3 ------- null}
+ -t 0.2588 -s 3 -d 0 -p ack -e 40 -c 2 -i 21 -a 2 -x {3.0 0.1 3 ------- null}
- -t 0.2588 -s 3 -d 0 -p ack -e 40 -c 2 -i 21 -a 2 -x {3.0 0.1 3 ------- null}
h -t 0.2588 -s 3 -d 0 -p ack -e 40 -c 2 -i 21 -a 2 -x {3.0 0.1 -1 ------- null}
r -t 0.26296 -s 0 -d 1 -p tcp -e 1040 -c 1 -i 13 -a 1 -x {0.0 1.0 4 ------- null}
+ -t 0.26296 -s 1 -d 0 -p ack -e 40 -c 1 -i 22 -a 1 -x {1.0 0.0 4 ------- null}
- -t 0.26296 -s 1 -d 0 -p ack -e 40 -c 1 -i 22 -a 1 -x {1.0 0.0 4 ------- null}
h -t 0.26296 -s 1 -d 0 -p ack -e 40 -c 1 -i 22 -a 1 -x {1.0 0.0 -1 ------- null}
r -t 0.26296 -s 0 -d 3 -p tcp -e 1040 -c 2 -i 15 -a 2 -x {0.1 3.0 4 ------- null}
+ -t 0.26296 -s 3 -d 0 -p ack -e 40 -c 2 -i 23 -a 2 -x {3.0 0.1 4 ------- null}
- -t 0.26296 -s 3 -d 0 -p ack -e 40 -c 2 -i 23 -a 2 -x {3.0 0.1 4 ------- null}
h -t 0.26296 -s 3 -d 0 -p ack -e 40 -c 2 -i 23 -a 2 -x {3.0 0.1 -1 ------- null}
r -t 0.26712 -s 0 -d 1 -p tcp -e 1040 -c 1 -i 16 -a 1 -x {0.0 1.0 5 ------- null}
+ -t 0.26712 -s 1 -d 0 -p ack -e 40 -c 1 -i 24 -a 1 -x {1.0 0.0 5 ------- null}
- -t 0.26712 -s 1 -d 0 -p ack -e 40 -c 1 -i 24 -a 1 -x {1.0 0.0 5 ------- null}
h -t 0.26712 -s 1 -d 0 -p ack -e 40 -c 1 -i 24 -a 1 -x {1.0 0.0 -1 ------- null}
r -t 0.26712 -s 0 -d 3 -p tcp -e 1040 -c 2 -i 18 -a 2 -x {0.1 3.0 5 ------- null}
+ -t 0.26712 -s 3 -d 0 -p ack -e 40 -c 2 -i 25 -a 2 -x {3.0 0.1 5 ------- null}
- -t 0.26712 -s 3 -d 0 -p ack -e 40 -c 2 -i 25 -a 2 -x {3.0 0.1 5 ------- null}
h -t 0.26712 -s 3 -d 0 -p ack -e 40 -c 2 -i 25 -a 2 -x {3.0 0.1 -1 ------- null}
r -t 0.26896 -s 1 -d 0 -p ack -e 40 -c 1 -i 20 -a 1 -x {1.0 0.0 3 ------- null}
+ -t 0.26896 -s 0 -d 1 -p tcp -e 1040 -c 1 -i 26 -a 1 -x {0.0 1.0 7 ------- null}
- -t 0.26896 -s 0 -d 1 -p tcp -e 1040 -c 1 -i 26 -a 1 -x {0.0 1.0 7 ------- null}
h -t 0.26896 -s 0 -d 1 -p tcp -e 1040 -c 1 -i 26 -a 1 -x {0.0 1.0 -1 ------- null}
+ -t 0.26896 -s 0 -d 1 -p tcp -e 1040 -c 1 -i 27 -a 1 -x {0.0 1.0 8 ------- null}
r -t 0.26896 -s 3 -d 0 -p ack -e 40 -c 2 -i 21 -a 2 -x {3.0 0.1 3 ------- null}
+ -t 0.26896 -s 0 -d 3 -p tcp -e 1040 -c 2 -i 28 -a 2 -x {0.1 3.0 7 ------- null}
- -t 0.26896 -s 0 -d 3 -p tcp -e 1040 -c 2 -i 28 -a 2 -x {0.1 3.0 7 ------- null}
h -t 0.26896 -s 0 -d 3 -p tcp -e 1040 -c 2 -i 28 -a 2 -x {0.1 3.0 -1 ------- null}
+ -t 0.26896 -s 0 -d 3 -p tcp -e 1040 -c 2 -i 29 -a 2 -x {0.1 3.0 8 ------- null}
r -t 0.27128 -s 0 -d 1 -p tcp -e 1040 -c 1 -i 17 -a 1 -x {0.0 1.0 6 ------- null}
+ -t 0.27128 -s 1 -d 0 -p ack -e 40 -c 1 -i 30 -a 1 -x {1.0 0.0 6 ------- null}
- -t 0.27128 -s 1 -d 0 -p ack -e 40 -c 1 -i 30 -a 1 -x {1.0 0.0 6 ------- null}
h -t 0.27128 -s 1 -d 0 -p ack -e 40 -c 1 -i 30 -a 1 -x {1.0 0.0 -1 ------- null}
r -t 0.27128 -s 0 -d 3 -p tcp -e 1040 -c 2 -i 19 -a 2 -x {0.1 3.0 6 ------- null}
+ -t 0.27128 -s 3 -d 0 -p ack -e 40 -c 2 -i 31 -a 2 -x {3.0 0.1 6 ------- null}
- -t 0.27128 -s 3 -d 0 -p ack -e 40 -c 2 -i 31 -a 2 -x {3.0 0.1 6 ------- null}
h -t 0.27128 -s 3 -d 0 -p ack -e 40 -c 2 -i 31 -a 2 -x {3.0 0.1 -1 ------- null}
r -t 0.27312 -s 1 -d 0 -p ack -e 40 -c 1 -i 22 -a 1 -x {1.0 0.0 4 ------- null}
+ -t 0.27312 -s 0 -d 1 -p tcp -e 1040 -c 1 -i 32 -a 1 -x {0.0 1.0 9 ------- null}
+ -t 0.27312 -s 0 -d 1 -p tcp -e 1040 -c 1 -i 33 -a 1 -x {0.0 1.0 10 ------- null}
r -t 0.27312 -s 3 -d 0 -p ack -e 40 -c 2 -i 23 -a 2 -x {3.0 0.1 4 ------- null}
+ -t 0.27312 -s 0 -d 3 -p tcp -e 1040 -c 2 -i 34 -a 2 -x {0.1 3.0 9 ------- null}
+ -t 0.27312 -s 0 -d 3 -p tcp -e 1040 -c 2 -i 35 -a 2 -x {0.1 3.0 10 ------- null}
- -t 0.27312 -s 0 -d 1 -p tcp -e 1040 -c 1 -i 27 -a 1 -x {0.0 1.0 8 ------- null}
h -t 0.27312 -s 0 -d 1 -p tcp -e 1040 -c 1 -i 27 -a 1 -x {0.0 1.0 -1 ------- null}
- -t 0.27312 -s 0 -d 3 -p tcp -e 1040 -c 2 -i 29 -a 2 -x {0.1 3.0 8 ------- null}
h -t 0.27312 -s 0 -d 3 -p tcp -e 1040 -c 2 -i 29 -a 2 -x {0.1 3.0 -1 ------- null}
r -t 0.27728 -s 1 -d 0 -p ack -e 40 -c 1 -i 24 -a 1 -x {1.0 0.0 5 ------- null}
+ -t 0.27728 -s 0 -d 1 -p tcp -e 1040 -c 1 -i 36 -a 1 -x {0.0 1.0 11 ------- null}
+ -t 0.27728 -s 0 -d 1 -p tcp -e 1040 -c 1 -i 37 -a 1 -x {0.0 1.0 12 ------- null}
r -t 0.27728 -s 3 -d 0 -p ack -e 40 -c 2 -i 25 -a 2 -x {3.0 0.1 5 ------- null}
+ -t 0.27728 -s 0 -d 3 -p tcp -e 1040 -c 2 -i 38 -a 2 -x {0.1 3.0 11 ------- null}
+ -t 0.27728 -s 0 -d 3 -p tcp -e 1040 -c 2 -i 39 -a 2 -x {0.1 3.0 12 ------- null}
- -t 0.27728 -s 0 -d 1 -p tcp -e 1040 -c 1 -i 32 -a 1 -x {0.0 1.0 9 ------- null}
h -t 0.27728 -s 0 -d 1 -p tcp -e 1040 -c 1 -i 32 -a 1 -x {0.0 1.0 -1 ------- null}
- -t 0.27728 -s 0 -d 3 -p tcp -e 1040 -c 2 -i 34 -a 2 -x {0.1 3.0 9 ------- null}
h -t 0.27728 -s 0 -d 3 -p tcp -e 1040 -c 2 -i 34 -a 2 -x {0.1 3.0 -1 ------- null}
r -t 0.28144 -s 1 -d 0 -p ack -e 40 -c 1 -i 30 -a 1 -x {1.0 0.0 6 ------- null}
+ -t 0.28144 -s 0 -d 1 -p tcp -e 1040 -c 1 -i 40 -a 1 -x {0.0 1.0 13 ------- null}
+ -t 0.28144 -s 0 -d 1 -p tcp -e 1040 -c 1 -i 41 -a 1 -x {0.0 1.0 14 ------- null}
r -t 0.28144 -s 3 -d 0 -p ack -e 40 -c 2 -i 31 -a 2 -x {3.0 0.1 6 ------- null}
+ -t 0.28144 -s 0 -d 3 -p tcp -e 1040 -c 2 -i 42 -a 2 -x {0.1 3.0 13 ------- null}
+ -t 0.28144 -s 0 -d 3 -p tcp -e 1040 -c 2 -i 43 -a 2 -x {0.1 3.0 14 ------- null}
- -t 0.28144 -s 0 -d 1 -p tcp -e 1040 -c 1 -i 33 -a 1 -x {0.0 1.0 10 ------- null}
h -t 0.28144 -s 0 -d 1 -p tcp -e 1040 -c 1 -i 33 -a 1 -x {0.0 1.0 -1 ------- null}
- -t 0.28144 -s 0 -d 3 -p tcp -e 1040 -c 2 -i 35 -a 2 -x {0.1 3.0 10 ------- null}
h -t 0.28144 -s 0 -d 3 -p tcp -e 1040 -c 2 -i 35 -a 2 -x {0.1 3.0 -1 ------- null}
r -t 0.28312 -s 0 -d 1 -p tcp -e 1040 -c 1 -i 26 -a 1 -x {0.0 1.0 7 ------- null}
+ -t 0.28312 -s 1 -d 0 -p ack -e 40 -c 1 -i 44 -a 1 -x {1.0 0.0 7 ------- null}
- -t 0.28312 -s 1 -d 0 -p ack -e 40 -c 1 -i 44 -a 1 -x {1.0 0.0 7 ------- null}
h -t 0.28312 -s 1 -d 0 -p ack -e 40 -c 1 -i 44 -a 1 -x {1.0 0.0 -1 ------- null}
r -t 0.28312 -s 0 -d 3 -p tcp -e 1040 -c 2 -i 28 -a 2 -x {0.1 3.0 7 ------- null}
+ -t 0.28312 -s 3 -d 0 -p ack -e 40 -c 2 -i 45 -a 2 -x {3.0 0.1 7 ------- null}
- -t 0.28312 -s 3 -d 0 -p ack -e 40 -c 2 -i 45 -a 2 -x {3.0 0.1 7 ------- null}
h -t 0.28312 -s 3 -d 0 -p ack -e 40 -c 2 -i 45 -a 2 -x {3.0 0.1 -1 ------- null}
- -t 0.2856 -s 0 -d 1 -p tcp -e 1040 -c 1 -i 36 -a 1 -x {0.0 1.0 11 ------- null}
h -t 0.2856 -s 0 -d 1 -p tcp -e 1040 -c 1 -i 36 -a 1 -x {0.0 1.0 -1 ------- null}
- -t 0.2856 -s 0 -d 3 -p tcp -e 1040 -c 2 -i 38 -a 2 -x {0.1 3.0 11 ------- null}
h -t 0.2856 -s 0 -d 3 -p tcp -e 1040 -c 2 -i 38 -a 2 -x {0.1 3.0 -1 ------- null}
r -t 0.28728 -s 0 -d 1 -p tcp -e 1040 -c 1 -i 27 -a 1 -x {0.0 1.0 8 ------- null}
+ -t 0.28728 -s 1 -d 0 -p ack -e 40 -c 1 -i 46 -a 1 -x {1.0 0.0 8 ------- null}
- -t 0.28728 -s 1 -d 0 -p ack -e 40 -c 1 -i 46 -a 1 -x {1.0 0.0 8 ------- null}
h -t 0.28728 -s 1 -d 0 -p ack -e 40 -c 1 -i 46 -a 1 -x {1.0 0.0 -1 ------- null}
r -t 0.28728 -s 0 -d 3 -p tcp -e 1040 -c 2 -i 29 -a 2 -x {0.1 3.0 8 ------- null}
+ -t 0.28728 -s 3 -d 0 -p ack -e 40 -c 2 -i 47 -a 2 -x {3.0 0.1 8 ------- null}
- -t 0.28728 -s 3 -d 0 -p ack -e 40 -c 2 -i 47 -a 2 -x {3.0 0.1 8 ------- null}
h -t 0.28728 -s 3 -d 0 -p ack -e 40 -c 2 -i 47 -a 2 -x {3.0 0.1 -1 ------- null}
- -t 0.28976 -s 0 -d 1 -p tcp -e 1040 -c 1 -i 37 -a 1 -x {0.0 1.0 12 ------- null}
h -t 0.28976 -s 0 -d 1 -p tcp -e 1040 -c 1 -i 37 -a 1 -x {0.0 1.0 -1 ------- null}
- -t 0.28976 -s 0 -d 3 -p tcp -e 1040 -c 2 -i 39 -a 2 -x {0.1 3.0 12 ------- null}
h -t 0.28976 -s 0 -d 3 -p tcp -e 1040 -c 2 -i 39 -a 2 -x {0.1 3.0 -1 ------- null}
r -t 0.29144 -s 0 -d 1 -p tcp -e 1040 -c 1 -i 32 -a 1 -x {0.0 1.0 9 ------- null}
+ -t 0.29144 -s 1 -d 0 -p ack -e 40 -c 1 -i 48 -a 1 -x {1.0 0.0 9 ------- null}
- -t 0.29144 -s 1 -d 0 -p ack -e 40 -c 1 -i 48 -a 1 -x {1.0 0.0 9 ------- null}
h -t 0.29144 -s 1 -d 0 -p ack -e 40 -c 1 -i 48 -a 1 -x {1.0 0.0 -1 ------- null}
r -t 0.29144 -s 0 -d 3 -p tcp -e 1040 -c 2 -i 34 -a 2 -x {0.1 3.0 9 ------- null}
+ -t 0.29144 -s 3 -d 0 -p ack -e 40 -c 2 -i 49 -a 2 -x {3.0 0.1 9 ------- null}
- -t 0.29144 -s 3 -d 0 -p ack -e 40 -c 2 -i 49 -a 2 -x {3.0 0.1 9 ------- null}
h -t 0.29144 -s 3 -d 0 -p ack -e 40 -c 2 -i 49 -a 2 -x {3.0 0.1 -1 ------- null}
r -t 0.29328 -s 1 -d 0 -p ack -e 40 -c 1 -i 44 -a 1 -x {1.0 0.0 7 ------- null}
+ -t 0.29328 -s 0 -d 1 -p tcp -e 1040 -c 1 -i 50 -a 1 -x {0.0 1.0 15 ------- null}
+ -t 0.29328 -s 0 -d 1 -p tcp -e 1040 -c 1 -i 51 -a 1 -x {0.0 1.0 16 ------- null}
r -t 0.29328 -s 3 -d 0 -p ack -e 40 -c 2 -i 45 -a 2 -x {3.0 0.1 7 ------- null}
+ -t 0.29328 -s 0 -d 3 -p tcp -e 1040 -c 2 -i 52 -a 2 -x {0.1 3.0 15 ------- null}
+ -t 0.29328 -s 0 -d 3 -p tcp -e 1040 -c 2 -i 53 -a 2 -x {0.1 3.0 16 ------- null}
- -t 0.29392 -s 0 -d 1 -p tcp -e 1040 -c 1 -i 40 -a 1 -x {0.0 1.0 13 ------- null}
h -t 0.29392 -s 0 -d 1 -p tcp -e 1040 -c 1 -i 40 -a 1 -x {0.0 1.0 -1 ------- null}
- -t 0.29392 -s 0 -d 3 -p tcp -e 1040 -c 2 -i 42 -a 2 -x {0.1 3.0 13 ------- null}
h -t 0.29392 -s 0 -d 3 -p tcp -e 1040 -c 2 -i 42 -a 2 -x {0.1 3.0 -1 ------- null}
r -t 0.2956 -s 0 -d 1 -p tcp -e 1040 -c 1 -i 33 -a 1 -x {0.0 1.0 10 ------- null}
+ -t 0.2956 -s 1 -d 0 -p ack -e 40 -c 1 -i 54 -a 1 -x {1.0 0.0 10 ------- null}
- -t 0.2956 -s 1 -d 0 -p ack -e 40 -c 1 -i 54 -a 1 -x {1.0 0.0 10 ------- null}
h -t 0.2956 -s 1 -d 0 -p ack -e 40 -c 1 -i 54 -a 1 -x {1.0 0.0 -1 ------- null}
r -t 0.2956 -s 0 -d 3 -p tcp -e 1040 -c 2 -i 35 -a 2 -x {0.1 3.0 10 ------- null}
+ -t 0.2956 -s 3 -d 0 -p ack -e 40 -c 2 -i 55 -a 2 -x {3.0 0.1 10 ------- null}
- -t 0.2956 -s 3 -d 0 -p ack -e 40 -c 2 -i 55 -a 2 -x {3.0 0.1 10 ------- null}
h -t 0.2956 -s 3 -d 0 -p ack -e 40 -c 2 -i 55 -a 2 -x {3.0 0.1 -1 ------- null}
r -t 0.29744 -s 1 -d 0 -p ack -e 40 -c 1 -i 46 -a 1 -x {1.0 0.0 8 ------- null}
+ -t 0.29744 -s 0 -d 1 -p tcp -e 1040 -c 1 -i 56 -a 1 -x {0.0 1.0 17 ------- null}
+ -t 0.29744 -s 0 -d 1 -p tcp -e 1040 -c 1 -i 57 -a 1 -x {0.0 1.0 18 ------- null}
r -t 0.29744 -s 3 -d 0 -p ack -e 40 -c 2 -i 47 -a 2 -x {3.0 0.1 8 ------- null}
+ -t 0.29744 -s 0 -d 3 -p tcp -e 1040 -c 2 -i 58 -a 2 -x {0.1 3.0 17 ------- null}
+ -t 0.29744 -s 0 -d 3 -p tcp -e 1040 -c 2 -i 59 -a 2 -x {0.1 3.0 18 ------- null}
- -t 0.29808 -s 0 -d 1 -p tcp -e 1040 -c 1 -i 41 -a 1 -x {0.0 1.0 14 ------- null}
h -t 0.29808 -s 0 -d 1 -p tcp -e 1040 -c 1 -i 41 -a 1 -x {0.0 1.0 -1 ------- null}
- -t 0.29808 -s 0 -d 3 -p tcp -e 1040 -c 2 -i 43 -a 2 -x {0.1 3.0 14 ------- null}
h -t 0.29808 -s 0 -d 3 -p tcp -e 1040 -c 2 -i 43 -a 2 -x {0.1 3.0 -1 ------- null}
r -t 0.29976 -s 0 -d 1 -p tcp -e 1040 -c 1 -i 36 -a 1 -x {0.0 1.0 11 ------- null}
+ -t 0.29976 -s 1 -d 0 -p ack -e 40 -c 1 -i 60 -a 1 -x {1.0 0.0 11 ------- null}
- -t 0.29976 -s 1 -d 0 -p ack -e 40 -c 1 -i 60 -a 1 -x {1.0 0.0 11 ------- null}
h -t 0.29976 -s 1 -d 0 -p ack -e 40 -c 1 -i 60 -a 1 -x {1.0 0.0 -1 ------- null}
r -t 0.29976 -s 0 -d 3 -p tcp -e 1040 -c 2 -i 38 -a 2 -x {0.1 3.0 11 ------- null}
+ -t 0.29976 -s 3 -d 0 -p ack -e 40 -c 2 -i 61 -a 2 -x {3.0 0.1 11 ------- null}
- -t 0.29976 -s 3 -d 0 -p ack -e 40 -c 2 -i 61 -a 2 -x {3.0 0.1 11 ------- null}
h -t 0.29976 -s 3 -d 0 -p ack -e 40 -c 2 -i 61 -a 2 -x {3.0 0.1 -1 ------- null}
r -t 0.3016 -s 1 -d 0 -p ack -e 40 -c 1 -i 48 -a 1 -x {1.0 0.0 9 ------- null}
+ -t 0.3016 -s 0 -d 1 -p tcp -e 1040 -c 1 -i 62 -a 1 -x {0.0 1.0 19 ------- null}
+ -t 0.3016 -s 0 -d 1 -p tcp -e 1040 -c 1 -i 63 -a 1 -x {0.0 1.0 20 ------- null}
r -t 0.3016 -s 3 -d 0 -p ack -e 40 -c 2 -i 49 -a 2 -x {3.0 0.1 9 ------- null}
+ -t 0.3016 -s 0 -d 3 -p tcp -e 1040 -c 2 -i 64 -a 2 -x {0.1 3.0 19 ------- null}
+ -t 0.3016 -s 0 -d 3 -p tcp -e 1040 -c 2 -i 65 -a 2 -x {0.1 3.0 20 ------- null}
- -t 0.30224 -s 0 -d 1 -p tcp -e 1040 -c 1 -i 50 -a 1 -x {0.0 1.0 15 ------- null}
h -t 0.30224 -s 0 -d 1 -p tcp -e 1040 -c 1 -i 50 -a 1 -x {0.0 1.0 -1 ------- null}
- -t 0.30224 -s 0 -d 3 -p tcp -e 1040 -c 2 -i 52 -a 2 -x {0.1 3.0 15 ------- null}
h -t 0.30224 -s 0 -d 3 -p tcp -e 1040 -c 2 -i 52 -a 2 -x {0.1 3.0 -1 ------- null}
r -t 0.30392 -s 0 -d 1 -p tcp -e 1040 -c 1 -i 37 -a 1 -x {0.0 1.0 12 ------- null}
+ -t 0.30392 -s 1 -d 0 -p ack -e 40 -c 1 -i 66 -a 1 -x {1.0 0.0 12 ------- null}
- -t 0.30392 -s 1 -d 0 -p ack -e 40 -c 1 -i 66 -a 1 -x {1.0 0.0 12 ------- null}
h -t 0.30392 -s 1 -d 0 -p ack -e 40 -c 1 -i 66 -a 1 -x {1.0 0.0 -1 ------- null}
r -t 0.30392 -s 0 -d 3 -p tcp -e 1040 -c 2 -i 39 -a 2 -x {0.1 3.0 12 ------- null}
+ -t 0.30392 -s 3 -d 0 -p ack -e 40 -c 2 -i 67 -a 2 -x {3.0 0.1 12 ------- null}
- -t 0.30392 -s 3 -d 0 -p ack -e 40 -c 2 -i 67 -a 2 -x {3.0 0.1 12 ------- null}
h -t 0.30392 -s 3 -d 0 -p ack -e 40 -c 2 -i 67 -a 2 -x {3.0 0.1 -1 ------- null}
r -t 0.30576 -s 1 -d 0 -p ack -e 40 -c 1 -i 54 -a 1 -x {1.0 0.0 10 ------- null}
+ -t 0.30576 -s 0 -d 1 -p tcp -e 1040 -c 1 -i 68 -a 1 -x {0.0 1.0 21 ------- null}
+ -t 0.30576 -s 0 -d 1 -p tcp -e 1040 -c 1 -i 69 -a 1 -x {0.0 1.0 22 ------- null}
r -t 0.30576 -s 3 -d 0 -p ack -e 40 -c 2 -i 55 -a 2 -x {3.0 0.1 10 ------- null}
+ -t 0.30576 -s 0 -d 3 -p tcp -e 1040 -c 2 -i 70 -a 2 -x {0.1 3.0 21 ------- null}
+ -t 0.30576 -s 0 -d 3 -p tcp -e 1040 -c 2 -i 71 -a 2 -x {0.1 3.0 22 ------- null}
- -t 0.3064 -s 0 -d 1 -p tcp -e 1040 -c 1 -i 51 -a 1 -x {0.0 1.0 16 ------- null}
h -t 0.3064 -s 0 -d 1 -p tcp -e 1040 -c 1 -i 51 -a 1 -x {0.0 1.0 -1 ------- null}
- -t 0.3064 -s 0 -d 3 -p tcp -e 1040 -c 2 -i 53 -a 2 -x {0.1 3.0 16 ------- null}
h -t 0.3064 -s 0 -d 3 -p tcp -e 1040 -c 2 -i 53 -a 2 -x {0.1 3.0 -1 ------- null}
r -t 0.30808 -s 0 -d 1 -p tcp -e 1040 -c 1 -i 40 -a 1 -x {0.0 1.0 13 ------- null}
+ -t 0.30808 -s 1 -d 0 -p ack -e 40 -c 1 -i 72 -a 1 -x {1.0 0.0 13 ------- null}
- -t 0.30808 -s 1 -d 0 -p ack -e 40 -c 1 -i 72 -a 1 -x {1.0 0.0 13 ------- null}
h -t 0.30808 -s 1 -d 0 -p ack -e 40 -c 1 -i 72 -a 1 -x {1.0 0.0 -1 ------- null}
r -t 0.30808 -s 0 -d 3 -p tcp -e 1040 -c 2 -i 42 -a 2 -x {0.1 3.0 13 ------- null}
+ -t 0.30808 -s 3 -d 0 -p ack -e 40 -c 2 -i 73 -a 2 -x {3.0 0.1 13 ------- null}
- -t 0.30808 -s 3 -d 0 -p ack -e 40 -c 2 -i 73 -a 2 -x {3.0 0.1 13 ------- null}
h -t 0.30808 -s 3 -d 0 -p ack -e 40 -c 2 -i 73 -a 2 -x {3.0 0.1 -1 ------- null}
r -t 0.30992 -s 1 -d 0 -p ack -e 40 -c 1 -i 60 -a 1 -x {1.0 0.0 11 ------- null}
+ -t 0.30992 -s 0 -d 1 -p tcp -e 1040 -c 1 -i 74 -a 1 -x {0.0 1.0 23 ------- null}
+ -t 0.30992 -s 0 -d 1 -p tcp -e 1040 -c 1 -i 75 -a 1 -x {0.0 1.0 24 ------- null}
r -t 0.30992 -s 3 -d 0 -p ack -e 40 -c 2 -i 61 -a 2 -x {3.0 0.1 11 ------- null}
+ -t 0.30992 -s 0 -d 3 -p tcp -e 1040 -c 2 -i 76 -a 2 -x {0.1 3.0 23 ------- null}
+ -t 0.30992 -s 0 -d 3 -p tcp -e 1040 -c 2 -i 77 -a 2 -x {0.1 3.0 24 ------- null}
- -t 0.31056 -s 0 -d 1 -p tcp -e 1040 -c 1 -i 56 -a 1 -x {0.0 1.0 17 ------- null}
h -t 0.31056 -s 0 -d 1 -p tcp -e 1040 -c 1 -i 56 -a 1 -x {0.0 1.0 -1 ------- null}
- -t 0.31056 -s 0 -d 3 -p tcp -e 1040 -c 2 -i 58 -a 2 -x {0.1 3.0 17 ------- null}
h -t 0.31056 -s 0 -d 3 -p tcp -e 1040 -c 2 -i 58 -a 2 -x {0.1 3.0 -1 ------- null}
r -t 0.31224 -s 0 -d 1 -p tcp -e 1040 -c 1 -i 41 -a 1 -x {0.0 1.0 14 ------- null}
+ -t 0.31224 -s 1 -d 0 -p ack -e 40 -c 1 -i 78 -a 1 -x {1.0 0.0 14 ------- null}
- -t 0.31224 -s 1 -d 0 -p ack -e 40 -c 1 -i 78 -a 1 -x {1.0 0.0 14 ------- null}
h -t 0.31224 -s 1 -d 0 -p ack -e 40 -c 1 -i 78 -a 1 -x {1.0 0.0 -1 ------- null}
r -t 0.31224 -s 0 -d 3 -p tcp -e 1040 -c 2 -i 43 -a 2 -x {0.1 3.0 14 ------- null}
+ -t 0.31224 -s 3 -d 0 -p ack -e 40 -c 2 -i 79 -a 2 -x {3.0 0.1 14 ------- null}
- -t 0.31224 -s 3 -d 0 -p ack -e 40 -c 2 -i 79 -a 2 -x {3.0 0.1 14 ------- null}
h -t 0.31224 -s 3 -d 0 -p ack -e 40 -c 2 -i 79 -a 2 -x {3.0 0.1 -1 ------- null}
r -t 0.31408 -s 1 -d 0 -p ack -e 40 -c 1 -i 66 -a 1 -x {1.0 0.0 12 ------- null}
+ -t 0.31408 -s 0 -d 1 -p tcp -e 1040 -c 1 -i 80 -a 1 -x {0.0 1.0 25 ------- null}
+ -t 0.31408 -s 0 -d 1 -p tcp -e 1040 -c 1 -i 81 -a 1 -x {0.0 1.0 26 ------- null}
r -t 0.31408 -s 3 -d 0 -p ack -e 40 -c 2 -i 67 -a 2 -x {3.0 0.1 12 ------- null}
+ -t 0.31408 -s 0 -d 3 -p tcp -e 1040 -c 2 -i 82 -a 2 -x {0.1 3.0 25 ------- null}
+ -t 0.31408 -s 0 -d 3 -p tcp -e 1040 -c 2 -i 83 -a 2 -x {0.1 3.0 26 ------- null}
- -t 0.31472 -s 0 -d 1 -p tcp -e 1040 -c 1 -i 57 -a 1 -x {0.0 1.0 18 ------- null}
h -t 0.31472 -s 0 -d 1 -p tcp -e 1040 -c 1 -i 57 -a 1 -x {0.0 1.0 -1 ------- null}
- -t 0.31472 -s 0 -d 3 -p tcp -e 1040 -c 2 -i 59 -a 2 -x {0.1 3.0 18 ------- null}
h -t 0.31472 -s 0 -d 3 -p tcp -e 1040 -c 2 -i 59 -a 2 -x {0.1 3.0 -1 ------- null}
r -t 0.3164 -s 0 -d 1 -p tcp -e 1040 -c 1 -i 50 -a 1 -x {0.0 1.0 15 ------- null}
+ -t 0.3164 -s 1 -d 0 -p ack -e 40 -c 1 -i 84 -a 1 -x {1.0 0.0 15 ------- null}
- -t 0.3164 -s 1 -d 0 -p ack -e 40 -c 1 -i 84 -a 1 -x {1.0 0.0 15 ------- null}
h -t 0.3164 -s 1 -d 0 -p ack -e 40 -c 1 -i 84 -a 1 -x {1.0 0.0 -1 ------- null}
r -t 0.3164 -s 0 -d 3 -p tcp -e 1040 -c 2 -i 52 -a 2 -x {0.1 3.0 15 ------- null}
+ -t 0.3164 -s 3 -d 0 -p ack -e 40 -c 2 -i 85 -a 2 -x {3.0 0.1 15 ------- null}
- -t 0.3164 -s 3 -d 0 -p ack -e 40 -c 2 -i 85 -a 2 -x {3.0 0.1 15 ------- null}
h -t 0.3164 -s 3 -d 0 -p ack -e 40 -c 2 -i 85 -a 2 -x {3.0 0.1 -1 ------- null}
r -t 0.31824 -s 1 -d 0 -p ack -e 40 -c 1 -i 72 -a 1 -x {1.0 0.0 13 ------- null}
+ -t 0.31824 -s 0 -d 1 -p tcp -e 1040 -c 1 -i 86 -a 1 -x {0.0 1.0 27 ------- null}
+ -t 0.31824 -s 0 -d 1 -p tcp -e 1040 -c 1 -i 87 -a 1 -x {0.0 1.0 28 ------- null}
r -t 0.31824 -s 3 -d 0 -p ack -e 40 -c 2 -i 73 -a 2 -x {3.0 0.1 13 ------- null}
+ -t 0.31824 -s 0 -d 3 -p tcp -e 1040 -c 2 -i 88 -a 2 -x {0.1 3.0 27 ------- null}
+ -t 0.31824 -s 0 -d 3 -p tcp -e 1040 -c 2 -i 89 -a 2 -x {0.1 3.0 28 ------- null}
- -t 0.31888 -s 0 -d 1 -p tcp -e 1040 -c 1 -i 62 -a 1 -x {0.0 1.0 19 ------- null}
h -t 0.31888 -s 0 -d 1 -p tcp -e 1040 -c 1 -i 62 -a 1 -x {0.0 1.0 -1 ------- null}
- -t 0.31888 -s 0 -d 3 -p tcp -e 1040 -c 2 -i 64 -a 2 -x {0.1 3.0 19 ------- null}
h -t 0.31888 -s 0 -d 3 -p tcp -e 1040 -c 2 -i 64 -a 2 -x {0.1 3.0 -1 ------- null}
r -t 0.32056 -s 0 -d 1 -p tcp -e 1040 -c 1 -i 51 -a 1 -x {0.0 1.0 16 ------- null}
+ -t 0.32056 -s 1 -d 0 -p ack -e 40 -c 1 -i 90 -a 1 -x {1.0 0.0 16 ------- null}
- -t 0.32056 -s 1 -d 0 -p ack -e 40 -c 1 -i 90 -a 1 -x {1.0 0.0 16 ------- null}
h -t 0.32056 -s 1 -d 0 -p ack -e 40 -c 1 -i 90 -a 1 -x {1.0 0.0 -1 ------- null}
r -t 0.32056 -s 0 -d 3 -p tcp -e 1040 -c 2 -i 53 -a 2 -x {0.1 3.0 16 ------- null}
+ -t 0.32056 -s 3 -d 0 -p ack -e 40 -c 2 -i 91 -a 2 -x {3.0 0.1 16 ------- null}
- -t 0.32056 -s 3 -d 0 -p ack -e 40 -c 2 -i 91 -a 2 -x {3.0 0.1 16 ------- null}
h -t 0.32056 -s 3 -d 0 -p ack -e 40 -c 2 -i 91 -a 2 -x {3.0 0.1 -1 ------- null}
r -t 0.3224 -s 1 -d 0 -p ack -e 40 -c 1 -i 78 -a 1 -x {1.0 0.0 14 ------- null}
+ -t 0.3224 -s 0 -d 1 -p tcp -e 1040 -c 1 -i 92 -a 1 -x {0.0 1.0 29 ------- null}
+ -t 0.3224 -s 0 -d 1 -p tcp -e 1040 -c 1 -i 93 -a 1 -x {0.0 1.0 30 ------- null}
r -t 0.3224 -s 3 -d 0 -p ack -e 40 -c 2 -i 79 -a 2 -x {3.0 0.1 14 ------- null}
+ -t 0.3224 -s 0 -d 3 -p tcp -e 1040 -c 2 -i 94 -a 2 -x {0.1 3.0 29 ------- null}
+ -t 0.3224 -s 0 -d 3 -p tcp -e 1040 -c 2 -i 95 -a 2 -x {0.1 3.0 30 ------- null}
- -t 0.32304 -s 0 -d 1 -p tcp -e 1040 -c 1 -i 63 -a 1 -x {0.0 1.0 20 ------- null}
h -t 0.32304 -s 0 -d 1 -p tcp -e 1040 -c 1 -i 63 -a 1 -x {0.0 1.0 -1 ------- null}
- -t 0.32304 -s 0 -d 3 -p tcp -e 1040 -c 2 -i 65 -a 2 -x {0.1 3.0 20 ------- null}
h -t 0.32304 -s 0 -d 3 -p tcp -e 1040 -c 2 -i 65 -a 2 -x {0.1 3.0 -1 ------- null}
r -t 0.32472 -s 0 -d 1 -p tcp -e 1040 -c 1 -i 56 -a 1 -x {0.0 1.0 17 ------- null}
+ -t 0.32472 -s 1 -d 0 -p ack -e 40 -c 1 -i 96 -a 1 -x {1.0 0.0 17 ------- null}
- -t 0.32472 -s 1 -d 0 -p ack -e 40 -c 1 -i 96 -a 1 -x {1.0 0.0 17 ------- null}
h -t 0.32472 -s 1 -d 0 -p ack -e 40 -c 1 -i 96 -a 1 -x {1.0 0.0 -1 ------- null}
r -t 0.32472 -s 0 -d 3 -p tcp -e 1040 -c 2 -i 58 -a 2 -x {0.1 3.0 17 ------- null}
+ -t 0.32472 -s 3 -d 0 -p ack -e 40 -c 2 -i 97 -a 2 -x {3.0 0.1 17 ------- null}
- -t 0.32472 -s 3 -d 0 -p ack -e 40 -c 2 -i 97 -a 2 -x {3.0 0.1 17 ------- null}
h -t 0.32472 -s 3 -d 0 -p ack -e 40 -c 2 -i 97 -a 2 -x {3.0 0.1 -1 ------- null}
r -t 0.32656 -s 1 -d 0 -p ack -e 40 -c 1 -i 84 -a 1 -x {1.0 0.0 15 ------- null}
+ -t 0.32656 -s 0 -d 1 -p tcp -e 1040 -c 1 -i 98 -a 1 -x {0.0 1.0 31 ------- null}
+ -t 0.32656 -s 0 -d 1 -p tcp -e 1040 -c 1 -i 99 -a 1 -x {0.0 1.0 32 ------- null}
r -t 0.32656 -s 3 -d 0 -p ack -e 40 -c 2 -i 85 -a 2 -x {3.0 0.1 15 ------- null}
+ -t 0.32656 -s 0 -d 3 -p tcp -e 1040 -c 2 -i 100 -a 2 -x {0.1 3.0 31 ------- null}
+ -t 0.32656 -s 0 -d 3 -p tcp -e 1040 -c 2 -i 101 -a 2 -x {0.1 3.0 32 ------- null}
- -t 0.3272 -s 0 -d 1 -p tcp -e 1040 -c 1 -i 68 -a 1 -x {0.0 1.0 21 ------- null}
h -t 0.3272 -s 0 -d 1 -p tcp -e 1040 -c 1 -i 68 -a 1 -x {0.0 1.0 -1 ------- null}
- -t 0.3272 -s 0 -d 3 -p tcp -e 1040 -c 2 -i 70 -a 2 -x {0.1 3.0 21 ------- null}
h -t 0.3272 -s 0 -d 3 -p tcp -e 1040 -c 2 -i 70 -a 2 -x {0.1 3.0 -1 ------- null}
r -t 0.32888 -s 0 -d 1 -p tcp -e 1040 -c 1 -i 57 -a 1 -x {0.0 1.0 18 ------- null}
+ -t 0.32888 -s 1 -d 0 -p ack -e 40 -c 1 -i 102 -a 1 -x {1.0 0.0 18 ------- null}
- -t 0.32888 -s 1 -d 0 -p ack -e 40 -c 1 -i 102 -a 1 -x {1.0 0.0 18 ------- null}
h -t 0.32888 -s 1 -d 0 -p ack -e 40 -c 1 -i 102 -a 1 -x {1.0 0.0 -1 ------- null}
r -t 0.32888 -s 0 -d 3 -p tcp -e 1040 -c 2 -i 59 -a 2 -x {0.1 3.0 18 ------- null}
+ -t 0.32888 -s 3 -d 0 -p ack -e 40 -c 2 -i 103 -a 2 -x {3.0 0.1 18 ------- null}
- -t 0.32888 -s 3 -d 0 -p ack -e 40 -c 2 -i 103 -a 2 -x {3.0 0.1 18 ------- null}
h -t 0.32888 -s 3 -d 0 -p ack -e 40 -c 2 -i 103 -a 2 -x {3.0 0.1 -1 ------- null}
r -t 0.33072 -s 1 -d 0 -p ack -e 40 -c 1 -i 90 -a 1 -x {1.0 0.0 16 ------- null}
+ -t 0.33072 -s 0 -d 1 -p tcp -e 1040 -c 1 -i 104 -a 1 -x {0.0 1.0 33 ------- null}
+ -t 0.33072 -s 0 -d 1 -p tcp -e 1040 -c 1 -i 105 -a 1 -x {0.0 1.0 34 ------- null}
r -t 0.33072 -s 3 -d 0 -p ack -e 40 -c 2 -i 91 -a 2 -x {3.0 0.1 16 ------- null}
+ -t 0.33072 -s 0 -d 3 -p tcp -e 1040 -c 2 -i 106 -a 2 -x {0.1 3.0 33 ------- null}
+ -t 0.33072 -s 0 -d 3 -p tcp -e 1040 -c 2 -i 107 -a 2 -x {0.1 3.0 34 ------- null}
- -t 0.33136 -s 0 -d 1 -p tcp -e 1040 -c 1 -i 69 -a 1 -x {0.0 1.0 22 ------- null}
h -t 0.33136 -s 0 -d 1 -p tcp -e 1040 -c 1 -i 69 -a 1 -x {0.0 1.0 -1 ------- null}
- -t 0.33136 -s 0 -d 3 -p tcp -e 1040 -c 2 -i 71 -a 2 -x {0.1 3.0 22 ------- null}
h -t 0.33136 -s 0 -d 3 -p tcp -e 1040 -c 2 -i 71 -a 2 -x {0.1 3.0 -1 ------- null}
r -t 0.33304 -s 0 -d 1 -p tcp -e 1040 -c 1 -i 62 -a 1 -x {0.0 1.0 19 ------- null}
+ -t 0.33304 -s 1 -d 0 -p ack -e 40 -c 1 -i 108 -a 1 -x {1.0 0.0 19 ------- null}
- -t 0.33304 -s 1 -d 0 -p ack -e 40 -c 1 -i 108 -a 1 -x {1.0 0.0 19 ------- null}
h -t 0.33304 -s 1 -d 0 -p ack -e 40 -c 1 -i 108 -a 1 -x {1.0 0.0 -1 ------- null}
r -t 0.33304 -s 0 -d 3 -p tcp -e 1040 -c 2 -i 64 -a 2 -x {0.1 3.0 19 ------- null}
+ -t 0.33304 -s 3 -d 0 -p ack -e 40 -c 2 -i 109 -a 2 -x {3.0 0.1 19 ------- null}
- -t 0.33304 -s 3 -d 0 -p ack -e 40 -c 2 -i 109 -a 2 -x {3.0 0.1 19 ------- null}
h -t 0.33304 -s 3 -d 0 -p ack -e 40 -c 2 -i 109 -a 2 -x {3.0 0.1 -1 ------- null}
r -t 0.33488 -s 1 -d 0 -p ack -e 40 -c 1 -i 96 -a 1 -x {1.0 0.0 17 ------- null}
+ -t 0.33488 -s 0 -d 1 -p tcp -e 1040 -c 1 -i 110 -a 1 -x {0.0 1.0 35 ------- null}
+ -t 0.33488 -s 0 -d 1 -p tcp -e 1040 -c 1 -i 111 -a 1 -x {0.0 1.0 36 ------- null}
r -t 0.33488 -s 3 -d 0 -p ack -e 40 -c 2 -i 97 -a 2 -x {3.0 0.1 17 ------- null}
+ -t 0.33488 -s 0 -d 3 -p tcp -e 1040 -c 2 -i 112 -a 2 -x {0.1 3.0 35 ------- null}