+ 0.2 0 1 tcp 40 ------- 1 0.0 1.0 0 0
- 0.2 0 1 tcp 40 ------- 1 0.0 1.0 0 0
+ 0.2 0 3 tcp 40 ------- 2 0.1 3.0 0 1
- 0.2 0 3 tcp 40 ------- 2 0.1 3.0 0 1
r 0.21016 0 1 tcp 40 ------- 1 0.0 1.0 0 0
+ 0.21016 1 0 ack 40 ------- 1 1.0 0.0 0 2
- 0.21016 1 0 ack 40 ------- 1 1.0 0.0 0 2
r 0.21016 0 3 tcp 40 ------- 2 0.1 3.0 0 1
+ 0.21016 3 0 ack 40 ------- 2 3.0 0.1 0 3
- 0.21016 3 0 ack 40 ------- 2 3.0 0.1 0 3
r 0.22032 1 0 ack 40 ------- 1 1.0 0.0 0 2
+ 0.22032 0 1 tcp 1040 ------- 1 0.0 1.0 1 4
- 0.22032 0 1 tcp 1040 ------- 1 0.0 1.0 1 4
+ 0.22032 0 1 tcp 1040 ------- 1 0.0 1.0 2 5
r 0.22032 3 0 ack 40 ------- 2 3.0 0.1 0 3
+ 0.22032 0 3 tcp 1040 ------- 2 0.1 3.0 1 6
- 0.22032 0 3 tcp 1040 ------- 2 0.1 3.0 1 6
+ 0.22032 0 3 tcp 1040 ------- 2 0.1 3.0 2 7
- 0.22448 0 1 tcp 1040 ------- 1 0.0 1.0 2 5
- 0.22448 0 3 tcp 1040 ------- 2 0.1 3.0 2 7
r 0.23448 0 1 tcp 1040 ------- 1 0.0 1.0 1 4
+ 0.23448 1 0 ack 40 ------- 1 1.0 0.0 1 8
- 0.23448 1 0 ack 40 ------- 1 1.0 0.0 1 8
r 0.23448 0 3 tcp 1040 ------- 2 0.1 3.0 1 6
+ 0.23448 3 0 ack 40 ------- 2 3.0 0.1 1 9
- 0.23448 3 0 ack 40 ------- 2 3.0 0.1 1 9
r 0.23864 0 1 tcp 1040 ------- 1 0.0 1.0 2 5
+ 0.23864 1 0 ack 40 ------- 1 1.0 0.0 2 10
- 0.23864 1 0 ack 40 ------- 1 1.0 0.0 2 10
r 0.23864 0 3 tcp 1040 ------- 2 0.1 3.0 2 7
+ 0.23864 3 0 ack 40 ------- 2 3.0 0.1 2 11
- 0.23864 3 0 ack 40 ------- 2 3.0 0.1 2 11
r 0.24464 1 0 ack 40 ------- 1 1.0 0.0 1 8
+ 0.24464 0 1 tcp 1040 ------- 1 0.0 1.0 3 12
- 0.24464 0 1 tcp 1040 ------- 1 0.0 1.0 3 12
+ 0.24464 0 1 tcp 1040 ------- 1 0.0 1.0 4 13
r 0.24464 3 0 ack 40 ------- 2 3.0 0.1 1 9
+ 0.24464 0 3 tcp 1040 ------- 2 0.1 3.0 3 14
- 0.24464 0 3 tcp 1040 ------- 2 0.1 3.0 3 14
+ 0.24464 0 3 tcp 1040 ------- 2 0.1 3.0 4 15
r 0.2488 1 0 ack 40 ------- 1 1.0 0.0 2 10
+ 0.2488 0 1 tcp 1040 ------- 1 0.0 1.0 5 16
+ 0.2488 0 1 tcp 1040 ------- 1 0.0 1.0 6 17
r 0.2488 3 0 ack 40 ------- 2 3.0 0.1 2 11
+ 0.2488 0 3 tcp 1040 ------- 2 0.1 3.0 5 18
+ 0.2488 0 3 tcp 1040 ------- 2 0.1 3.0 6 19
- 0.2488 0 1 tcp 1040 ------- 1 0.0 1.0 4 13
- 0.2488 0 3 tcp 1040 ------- 2 0.1 3.0 4 15
- 0.25296 0 1 tcp 1040 ------- 1 0.0 1.0 5 16
- 0.25296 0 3 tcp 1040 ------- 2 0.1 3.0 5 18
- 0.25712 0 1 tcp 1040 ------- 1 0.0 1.0 6 17
- 0.25712 0 3 tcp 1040 ------- 2 0.1 3.0 6 19
r 0.2588 0 1 tcp 1040 ------- 1 0.0 1.0 3 12
+ 0.2588 1 0 ack 40 ------- 1 1.0 0.0 3 20
- 0.2588 1 0 ack 40 ------- 1 1.0 0.0 3 20
r 0.2588 0 3 tcp 1040 ------- 2 0.1 3.0 3 14
+ 0.2588 3 0 ack 40 ------- 2 3.0 0.1 3 21
- 0.2588 3 0 ack 40 ------- 2 3.0 0.1 3 21
r 0.26296 0 1 tcp 1040 ------- 1 0.0 1.0 4 13
+ 0.26296 1 0 ack 40 ------- 1 1.0 0.0 4 22
- 0.26296 1 0 ack 40 ------- 1 1.0 0.0 4 22
r 0.26296 0 3 tcp 1040 ------- 2 0.1 3.0 4 15
+ 0.26296 3 0 ack 40 ------- 2 3.0 0.1 4 23
- 0.26296 3 0 ack 40 ------- 2 3.0 0.1 4 23
r 0.26712 0 1 tcp 1040 ------- 1 0.0 1.0 5 16
+ 0.26712 1 0 ack 40 ------- 1 1.0 0.0 5 24
- 0.26712 1 0 ack 40 ------- 1 1.0 0.0 5 24
r 0.26712 0 3 tcp 1040 ------- 2 0.1 3.0 5 18
+ 0.26712 3 0 ack 40 ------- 2 3.0 0.1 5 25
- 0.26712 3 0 ack 40 ------- 2 3.0 0.1 5 25
r 0.26896 1 0 ack 40 ------- 1 1.0 0.0 3 20
+ 0.26896 0 1 tcp 1040 ------- 1 0.0 1.0 7 26
- 0.26896 0 1 tcp 1040 ------- 1 0.0 1.0 7 26
+ 0.26896 0 1 tcp 1040 ------- 1 0.0 1.0 8 27
r 0.26896 3 0 ack 40 ------- 2 3.0 0.1 3 21
+ 0.26896 0 3 tcp 1040 ------- 2 0.1 3.0 7 28
- 0.26896 0 3 tcp 1040 ------- 2 0.1 3.0 7 28
+ 0.26896 0 3 tcp 1040 ------- 2 0.1 3.0 8 29
r 0.27128 0 1 tcp 1040 ------- 1 0.0 1.0 6 17
+ 0.27128 1 0 ack 40 ------- 1 1.0 0.0 6 30
- 0.27128 1 0 ack 40 ------- 1 1.0 0.0 6 30
r 0.27128 0 3 tcp 1040 ------- 2 0.1 3.0 6 19
+ 0.27128 3 0 ack 40 ------- 2 3.0 0.1 6 31
- 0.27128 3 0 ack 40 ------- 2 3.0 0.1 6 31
r 0.27312 1 0 ack 40 ------- 1 1.0 0.0 4 22
+ 0.27312 0 1 tcp 1040 ------- 1 0.0 1.0 9 32
+ 0.27312 0 1 tcp 1040 ------- 1 0.0 1.0 10 33
r 0.27312 3 0 ack 40 ------- 2 3.0 0.1 4 23
+ 0.27312 0 3 tcp 1040 ------- 2 0.1 3.0 9 34
+ 0.27312 0 3 tcp 1040 ------- 2 0.1 3.0 10 35
- 0.27312 0 1 tcp 1040 ------- 1 0.0 1.0 8 27
- 0.27312 0 3 tcp 1040 ------- 2 0.1 3.0 8 29
r 0.27728 1 0 ack 40 ------- 1 1.0 0.0 5 24
+ 0.27728 0 1 tcp 1040 ------- 1 0.0 1.0 11 36
+ 0.27728 0 1 tcp 1040 ------- 1 0.0 1.0 12 37
r 0.27728 3 0 ack 40 ------- 2 3.0 0.1 5 25
+ 0.27728 0 3 tcp 1040 ------- 2 0.1 3.0 11 38
+ 0.27728 0 3 tcp 1040 ------- 2 0.1 3.0 12 39
- 0.27728 0 1 tcp 1040 ------- 1 0.0 1.0 9 32
- 0.27728 0 3 tcp 1040 ------- 2 0.1 3.0 9 34
r 0.28144 1 0 ack 40 ------- 1 1.0 0.0 6 30
+ 0.28144 0 1 tcp 1040 ------- 1 0.0 1.0 13 40
+ 0.28144 0 1 tcp 1040 ------- 1 0.0 1.0 14 41
r 0.28144 3 0 ack 40 ------- 2 3.0 0.1 6 31
+ 0.28144 0 3 tcp 1040 ------- 2 0.1 3.0 13 42
+ 0.28144 0 3 tcp 1040 ------- 2 0.1 3.0 14 43
- 0.28144 0 1 tcp 1040 ------- 1 0.0 1.0 10 33
- 0.28144 0 3 tcp 1040 ------- 2 0.1 3.0 10 35
r 0.28312 0 1 tcp 1040 ------- 1 0.0 1.0 7 26
+ 0.28312 1 0 ack 40 ------- 1 1.0 0.0 7 44
- 0.28312 1 0 ack 40 ------- 1 1.0 0.0 7 44
r 0.28312 0 3 tcp 1040 ------- 2 0.1 3.0 7 28
+ 0.28312 3 0 ack 40 ------- 2 3.0 0.1 7 45
- 0.28312 3 0 ack 40 ------- 2 3.0 0.1 7 45
- 0.2856 0 1 tcp 1040 ------- 1 0.0 1.0 11 36
- 0.2856 0 3 tcp 1040 ------- 2 0.1 3.0 11 38
r 0.28728 0 1 tcp 1040 ------- 1 0.0 1.0 8 27
+ 0.28728 1 0 ack 40 ------- 1 1.0 0.0 8 46
- 0.28728 1 0 ack 40 ------- 1 1.0 0.0 8 46
r 0.28728 0 3 tcp 1040 ------- 2 0.1 3.0 8 29
+ 0.28728 3 0 ack 40 ------- 2 3.0 0.1 8 47
- 0.28728 3 0 ack 40 ------- 2 3.0 0.1 8 47
- 0.28976 0 1 tcp 1040 ------- 1 0.0 1.0 12 37
- 0.28976 0 3 tcp 1040 ------- 2 0.1 3.0 12 39
r 0.29144 0 1 tcp 1040 ------- 1 0.0 1.0 9 32
+ 0.29144 1 0 ack 40 ------- 1 1.0 0.0 9 48
- 0.29144 1 0 ack 40 ------- 1 1.0 0.0 9 48
r 0.29144 0 3 tcp 1040 ------- 2 0.1 3.0 9 34
+ 0.29144 3 0 ack 40 ------- 2 3.0 0.1 9 49
- 0.29144 3 0 ack 40 ------- 2 3.0 0.1 9 49
r 0.29328 1 0 ack 40 ------- 1 1.0 0.0 7 44
+ 0.29328 0 1 tcp 1040 ------- 1 0.0 1.0 15 50
+ 0.29328 0 1 tcp 1040 ------- 1 0.0 1.0 16 51
r 0.29328 3 0 ack 40 ------- 2 3.0 0.1 7 45
+ 0.29328 0 3 tcp 1040 ------- 2 0.1 3.0 15 52
+ 0.29328 0 3 tcp 1040 ------- 2 0.1 3.0 16 53
- 0.29392 0 1 tcp 1040 ------- 1 0.0 1.0 13 40
- 0.29392 0 3 tcp 1040 ------- 2 0.1 3.0 13 42
r 0.2956 0 1 tcp 1040 ------- 1 0.0 1.0 10 33
+ 0.2956 1 0 ack 40 ------- 1 1.0 0.0 10 54
- 0.2956 1 0 ack 40 ------- 1 1.0 0.0 10 54
r 0.2956 0 3 tcp 1040 ------- 2 0.1 3.0 10 35
+ 0.2956 3 0 ack 40 ------- 2 3.0 0.1 10 55
- 0.2956 3 0 ack 40 ------- 2 3.0 0.1 10 55
r 0.29744 1 0 ack 40 ------- 1 1.0 0.0 8 46
+ 0.29744 0 1 tcp 1040 ------- 1 0.0 1.0 17 56
+ 0.29744 0 1 tcp 1040 ------- 1 0.0 1.0 18 57
r 0.29744 3 0 ack 40 ------- 2 3.0 0.1 8 47
+ 0.29744 0 3 tcp 1040 ------- 2 0.1 3.0 17 58
+ 0.29744 0 3 tcp 1040 ------- 2 0.1 3.0 18 59
- 0.29808 0 1 tcp 1040 ------- 1 0.0 1.0 14 41
- 0.29808 0 3 tcp 1040 ------- 2 0.1 3.0 14 43
r 0.29976 0 1 tcp 1040 ------- 1 0.0 1.0 11 36
+ 0.29976 1 0 ack 40 ------- 1 1.0 0.0 11 60
- 0.29976 1 0 ack 40 ------- 1 1.0 0.0 11 60
r 0.29976 0 3 tcp 1040 ------- 2 0.1 3.0 11 38
+ 0.29976 3 0 ack 40 ------- 2 3.0 0.1 11 61
- 0.29976 3 0 ack 40 ------- 2 3.0 0.1 11 61
r 0.3016 1 0 ack 40 ------- 1 1.0 0.0 9 48
+ 0.3016 0 1 tcp 1040 ------- 1 0.0 1.0 19 62
+ 0.3016 0 1 tcp 1040 ------- 1 0.0 1.0 20 63
r 0.3016 3 0 ack 40 ------- 2 3.0 0.1 9 49
+ 0.3016 0 3 tcp 1040 ------- 2 0.1 3.0 19 64
+ 0.3016 0 3 tcp 1040 ------- 2 0.1 3.0 20 65
- 0.30224 0 1 tcp 1040 ------- 1 0.0 1.0 15 50
- 0.30224 0 3 tcp 1040 ------- 2 0.1 3.0 15 52
r 0.30392 0 1 tcp 1040 ------- 1 0.0 1.0 12 37
+ 0.30392 1 0 ack 40 ------- 1 1.0 0.0 12 66
- 0.30392 1 0 ack 40 ------- 1 1.0 0.0 12 66
r 0.30392 0 3 tcp 1040 ------- 2 0.1 3.0 12 39
+ 0.30392 3 0 ack 40 ------- 2 3.0 0.1 12 67
- 0.30392 3 0 ack 40 ------- 2 3.0 0.1 12 67
r 0.30576 1 0 ack 40 ------- 1 1.0 0.0 10 54
+ 0.30576 0 1 tcp 1040 ------- 1 0.0 1.0 21 68
+ 0.30576 0 1 tcp 1040 ------- 1 0.0 1.0 22 69
r 0.30576 3 0 ack 40 ------- 2 3.0 0.1 10 55
+ 0.30576 0 3 tcp 1040 ------- 2 0.1 3.0 21 70
+ 0.30576 0 3 tcp 1040 ------- 2 0.1 3.0 22 71
- 0.3064 0 1 tcp 1040 ------- 1 0.0 1.0 16 51
- 0.3064 0 3 tcp 1040 ------- 2 0.1 3.0 16 53
r 0.30808 0 1 tcp 1040 ------- 1 0.0 1.0 13 40
+ 0.30808 1 0 ack 40 ------- 1 1.0 0.0 13 72
- 0.30808 1 0 ack 40 ------- 1 1.0 0.0 13 72
r 0.30808 0 3 tcp 1040 ------- 2 0.1 3.0 13 42
+ 0.30808 3 0 ack 40 ------- 2 3.0 0.1 13 73
- 0.30808 3 0 ack 40 ------- 2 3.0 0.1 13 73
r 0.30992 1 0 ack 40 ------- 1 1.0 0.0 11 60
+ 0.30992 0 1 tcp 1040 ------- 1 0.0 1.0 23 74
+ 0.30992 0 1 tcp 1040 ------- 1 0.0 1.0 24 75
r 0.30992 3 0 ack 40 ------- 2 3.0 0.1 11 61
+ 0.30992 0 3 tcp 1040 ------- 2 0.1 3.0 23 76
+ 0.30992 0 3 tcp 1040 ------- 2 0.1 3.0 24 77
- 0.31056 0 1 tcp 1040 ------- 1 0.0 1.0 17 56
- 0.31056 0 3 tcp 1040 ------- 2 0.1 3.0 17 58
r 0.31224 0 1 tcp 1040 ------- 1 0.0 1.0 14 41
+ 0.31224 1 0 ack 40 ------- 1 1.0 0.0 14 78
- 0.31224 1 0 ack 40 ------- 1 1.0 0.0 14 78
r 0.31224 0 3 tcp 1040 ------- 2 0.1 3.0 14 43
+ 0.31224 3 0 ack 40 ------- 2 3.0 0.1 14 79
- 0.31224 3 0 ack 40 ------- 2 3.0 0.1 14 79
r 0.31408 1 0 ack 40 ------- 1 1.0 0.0 12 66
+ 0.31408 0 1 tcp 1040 ------- 1 0.0 1.0 25 80
+ 0.31408 0 1 tcp 1040 ------- 1 0.0 1.0 26 81
r 0.31408 3 0 ack 40 ------- 2 3.0 0.1 12 67
+ 0.31408 0 3 tcp 1040 ------- 2 0.1 3.0 25 82
+ 0.31408 0 3 tcp 1040 ------- 2 0.1 3.0 26 83
- 0.31472 0 1 tcp 1040 ------- 1 0.0 1.0 18 57
- 0.31472 0 3 tcp 1040 ------- 2 0.1 3.0 18 59
r 0.3164 0 1 tcp 1040 ------- 1 0.0 1.0 15 50
+ 0.3164 1 0 ack 40 ------- 1 1.0 0.0 15 84
- 0.3164 1 0 ack 40 ------- 1 1.0 0.0 15 84
r 0.3164 0 3 tcp 1040 ------- 2 0.1 3.0 15 52
+ 0.3164 3 0 ack 40 ------- 2 3.0 0.1 15 85
- 0.3164 3 0 ack 40 ------- 2 3.0 0.1 15 85
r 0.31824 1 0 ack 40 ------- 1 1.0 0.0 13 72
+ 0.31824 0 1 tcp 1040 ------- 1 0.0 1.0 27 86
+ 0.31824 0 1 tcp 1040 ------- 1 0.0 1.0 28 87
r 0.31824 3 0 ack 40 ------- 2 3.0 0.1 13 73
+ 0.31824 0 3 tcp 1040 ------- 2 0.1 3.0 27 88
+ 0.31824 0 3 tcp 1040 ------- 2 0.1 3.0 28 89
- 0.31888 0 1 tcp 1040 ------- 1 0.0 1.0 19 62
- 0.31888 0 3 tcp 1040 ------- 2 0.1 3.0 19 64
r 0.32056 0 1 tcp 1040 ------- 1 0.0 1.0 16 51
+ 0.32056 1 0 ack 40 ------- 1 1.0 0.0 16 90
- 0.32056 1 0 ack 40 ------- 1 1.0 0.0 16 90
r 0.32056 0 3 tcp 1040 ------- 2 0.1 3.0 16 53
+ 0.32056 3 0 ack 40 ------- 2 3.0 0.1 16 91
- 0.32056 3 0 ack 40 ------- 2 3.0 0.1 16 91
r 0.3224 1 0 ack 40 ------- 1 1.0 0.0 14 78
+ 0.3224 0 1 tcp 1040 ------- 1 0.0 1.0 29 92
+ 0.3224 0 1 tcp 1040 ------- 1 0.0 1.0 30 93
r 0.3224 3 0 ack 40 ------- 2 3.0 0.1 14 79
+ 0.3224 0 3 tcp 1040 ------- 2 0.1 3.0 29 94
+ 0.3224 0 3 tcp 1040 ------- 2 0.1 3.0 30 95
- 0.32304 0 1 tcp 1040 ------- 1 0.0 1.0 20 63
- 0.32304 0 3 tcp 1040 ------- 2 0.1 3.0 20 65
r 0.32472 0 1 tcp 1040 ------- 1 0.0 1.0 17 56
+ 0.32472 1 0 ack 40 ------- 1 1.0 0.0 17 96
- 0.32472 1 0 ack 40 ------- 1 1.0 0.0 17 96
r 0.32472 0 3 tcp 1040 ------- 2 0.1 3.0 17 58
+ 0.32472 3 0 ack 40 ------- 2 3.0 0.1 17 97
- 0.32472 3 0 ack 40 ------- 2 3.0 0.1 17 97
r 0.32656 1 0 ack 40 ------- 1 1.0 0.0 15 84
+ 0.32656 0 1 tcp 1040 ------- 1 0.0 1.0 31 98
+ 0.32656 0 1 tcp 1040 ------- 1 0.0 1.0 32 99
r 0.32656 3 0 ack 40 ------- 2 3.0 0.1 15 85
+ 0.32656 0 3 tcp 1040 ------- 2 0.1 3.0 31 100
+ 0.32656 0 3 tcp 1040 ------- 2 0.1 3.0 32 101
- 0.3272 0 1 tcp 1040 ------- 1 0.0 1.0 21 68
- 0.3272 0 3 tcp 1040 ------- 2 0.1 3.0 21 70
r 0.32888 0 1 tcp 1040 ------- 1 0.0 1.0 18 57
+ 0.32888 1 0 ack 40 ------- 1 1.0 0.0 18 102
- 0.32888 1 0 ack 40 ------- 1 1.0 0.0 18 102
r 0.32888 0 3 tcp 1040 ------- 2 0.1 3.0 18 59
+ 0.32888 3 0 ack 40 ------- 2 3.0 0.1 18 103
- 0.32888 3 0 ack 40 ------- 2 3.0 0.1 18 103
r 0.33072 1 0 ack 40 ------- 1 1.0 0.0 16 90
+ 0.33072 0 1 tcp 1040 ------- 1 0.0 1.0 33 104
+ 0.33072 0 1 tcp 1040 ------- 1 0.0 1.0 34 105
r 0.33072 3 0 ack 40 ------- 2 3.0 0.1 16 91
+ 0.33072 0 3 tcp 1040 ------- 2 0.1 3.0 33 106
+ 0.33072 0 3 tcp 1040 ------- 2 0.1 3.0 34 107
- 0.33136 0 1 tcp 1040 ------- 1 0.0 1.0 22 69
- 0.33136 0 3 tcp 1040 ------- 2 0.1 3.0 22 71
r 0.33304 0 1 tcp 1040 ------- 1 0.0 1.0 19 62
+ 0.33304 1 0 ack 40 ------- 1 1.0 0.0 19 108
- 0.33304 1 0 ack 40 ------- 1 1.0 0.0 19 108
r 0.33304 0 3 tcp 1040 ------- 2 0.1 3.0 19 64
+ 0.33304 3 0 ack 40 ------- 2 3.0 0.1 19 109
- 0.33304 3 0 ack 40 ------- 2 3.0 0.1 19 109
r 0.33488 1 0 ack 40 ------- 1 1.0 0.0 17 96
+ 0.33488 0 1 tcp 1040 ------- 1 0.0 1.0 35 110
+ 0.33488 0 1 tcp 1040 ------- 1 0.0 1.0 36 111
r 0.33488 3 0 ack 40 ------- 2 3.0 0.1 17 97
+ 0.33488 0 3 tcp 1040 ------- 2 0.1 3.0 35 112
+ 0.33488 0 3 tcp 1040 ------- 2 0.1 3.0 36 113
- 0.33552 0 1 tcp 1040 ------- 1 0.0 1.0 23 74
- 0.33552 0 3 tcp 1040 ------- 2 0.1 3.0 23 76
r 0.3372 0 1 tcp 1040 ------- 1 0.0 1.0 20 63
+ 0.3372 1 0 ack 40 ------- 1 1.0 0.0 20 114
- 0.3372 1 0 ack 40 ------- 1 1.0 0.0 20 114
r 0.3372 0 3 tcp 1040 ------- 2 0.1 3.0 20 65
+ 0.3372 3 0 ack 40 ------- 2 3.0 0.1 20 115
- 0.3372 3 0 ack 40 ------- 2 3.0 0.1 20 115
r 0.33904 1 0 ack 40 ------- 1 1.0 0.0 18 102
+ 0.33904 0 1 tcp 1040 ------- 1 0.0 1.0 37 116
+ 0.33904 0 1 tcp 1040 ------- 1 0.0 1.0 38 117
r 0.33904 3 0 ack 40 ------- 2 3.0 0.1 18 103
+ 0.33904 0 3 tcp 1040 ------- 2 0.1 3.0 37 118
+ 0.33904 0 3 tcp 1040 ------- 2 0.1 3.0 38 119
- 0.33968 0 1 tcp 1040 ------- 1 0.0 1.0 24 75
- 0.33968 0 3 tcp 1040 ------- 2 0.1 3.0 24 77
r 0.34136 0 1 tcp 1040 ------- 1 0.0 1.0 21 68
+ 0.34136 1 0 ack 40 ------- 1 1.0 0.0 21 120
- 0.34136 1 0 ack 40 ------- 1 1.0 0.0 21 120
r 0.34136 0 3 tcp 1040 ------- 2 0.1 3.0 21 70
+ 0.34136 3 0 ack 40 ------- 2 3.0 0.1 21 121
- 0.34136 3 0 ack 40 ------- 2 3.0 0.1 21 121
r 0.3432 1 0 ack 40 ------- 1 1.0 0.0 19 108
+ 0.3432 0 1 tcp 1040 ------- 1 0.0 1.0 39 122
r 0.3432 3 0 ack 40 ------- 2 3.0 0.1 19 109
+ 0.3432 0 3 tcp 1040 ------- 2 0.1 3.0 39 123
- 0.34384 0 1 tcp 1040 ------- 1 0.0 1.0 25 80
- 0.34384 0 3 tcp 1040 ------- 2 0.1 3.0 25 82
r 0.34552 0 1 tcp 1040 ------- 1 0.0 1.0 22 69
+ 0.34552 1 0 ack 40 ------- 1 1.0 0.0 22 124
- 0.34552 1 0 ack 40 ------- 1 1.0 0.0 22 124
r 0.34552 0 3 tcp 1040 ------- 2 0.1 3.0 22 71
+ 0.34552 3 0 ack 40 ------- 2 3.0 0.1 22 125
- 0.34552 3 0 ack 40 ------- 2 3.0 0.1 22 125
r 0.34736 1 0 ack 40 ------- 1 1.0 0.0 20 114
+ 0.34736 0 1 tcp 1040 ------- 1 0.0 1.0 40 126
r 0.34736 3 0 ack 40 ------- 2 3.0 0.1 20 115
+ 0.34736 0 3 tcp 1040 ------- 2 0.1 3.0 40 127
- 0.348 0 1 tcp 1040 ------- 1 0.0 1.0 26 81
- 0.348 0 3 tcp 1040 ------- 2 0.1 3.0 26 83
r 0.34968 0 1 tcp 1040 ------- 1 0.0 1.0 23 74
+ 0.34968 1 0 ack 40 ------- 1 1.0 0.0 23 128
- 0.34968 1 0 ack 40 ------- 1 1.0 0.0 23 128
r 0.34968 0 3 tcp 1040 ------- 2 0.1 3.0 23 76
+ 0.34968 3 0 ack 40 ------- 2 3.0 0.1 23 129
- 0.34968 3 0 ack 40 ------- 2 3.0 0.1 23 129
r 0.35152 1 0 ack 40 ------- 1 1.0 0.0 21 120
+ 0.35152 0 1 tcp 1040 ------- 1 0.0 1.0 41 130
r 0.35152 3 0 ack 40 ------- 2 3.0 0.1 21 121
+ 0.35152 0 3 tcp 1040 ------- 2 0.1 3.0 41 131
- 0.35216 0 1 tcp 1040 ------- 1 0.0 1.0 27 86
- 0.35216 0 3 tcp 1040 ------- 2 0.1 3.0 27 88
r 0.35384 0 1 tcp 1040 ------- 1 0.0 1.0 24 75
+ 0.35384 1 0 ack 40 ------- 1 1.0 0.0 24 132
- 0.35384 1 0 ack 40 ------- 1 1.0 0.0 24 132
r 0.35384 0 3 tcp 1040 ------- 2 0.1 3.0 24 77
+ 0.35384 3 0 ack 40 ------- 2 3.0 0.1 24 133
- 0.35384 3 0 ack 40 ------- 2 3.0 0.1 24 133
r 0.35568 1 0 ack 40 ------- 1 1.0 0.0 22 124
+ 0.35568 0 1 tcp 1040 ------- 1 0.0 1.0 42 134
r 0.35568 3 0 ack 40 ------- 2 3.0 0.1 22 125
+ 0.35568 0 3 tcp 1040 ------- 2 0.1 3.0 42 135
- 0.35632 0 1 tcp 1040 ------- 1 0.0 1.0 28 87
- 0.35632 0 3 tcp 1040 ------- 2 0.1 3.0 28 89
r 0.358 0 1 tcp 1040 ------- 1 0.0 1.0 25 80
+ 0.358 1 0 ack 40 ------- 1 1.0 0.0 25 136
- 0.358 1 0 ack 40 ------- 1 1.0 0.0 25 136
r 0.358 0 3 tcp 1040 ------- 2 0.1 3.0 25 82
+ 0.358 3 0 ack 40 ------- 2 3.0 0.1 25 137
- 0.358 3 0 ack 40 ------- 2 3.0 0.1 25 137
r 0.35984 1 0 ack 40 ------- 1 1.0 0.0 23 128
+ 0.35984 0 1 tcp 1040 ------- 1 0.0 1.0 43 138
r 0.35984 3 0 ack 40 ------- 2 3.0 0.1 23 129
+ 0.35984 0 3 tcp 1040 ------- 2 0.1 3.0 43 139
- 0.36048 0 1 tcp 1040 ------- 1 0.0 1.0 29 92
- 0.36048 0 3 tcp 1040 ------- 2 0.1 3.0 29 94
r 0.36216 0 1 tcp 1040 ------- 1 0.0 1.0 26 81
+ 0.36216 1 0 ack 40 ------- 1 1.0 0.0 26 140
- 0.36216 1 0 ack 40 ------- 1 1.0 0.0 26 140
r 0.36216 0 3 tcp 1040 ------- 2 0.1 3.0 26 83
+ 0.36216 3 0 ack 40 ------- 2 3.0 0.1 26 141
- 0.36216 3 0 ack 40 ------- 2 3.0 0.1 26 141
r 0.364 1 0 ack 40 ------- 1 1.0 0.0 24 132
+ 0.364 0 1 tcp 1040 ------- 1 0.0 1.0 44 142
r 0.364 3 0 ack 40 ------- 2 3.0 0.1 24 133
+ 0.364 0 3 tcp 1040 ------- 2 0.1 3.0 44 143
- 0.36464 0 1 tcp 1040 ------- 1 0.0 1.0 30 93
- 0.36464 0 3 tcp 1040 ------- 2 0.1 3.0 30 95
r 0.36632 0 1 tcp 1040 ------- 1 0.0 1.0 27 86
+ 0.36632 1 0 ack 40 ------- 1 1.0 0.0 27 144
- 0.36632 1 0 ack 40 ------- 1 1.0 0.0 27 144
r 0.36632 0 3 tcp 1040 ------- 2 0.1 3.0 27 88
+ 0.36632 3 0 ack 40 ------- 2 3.0 0.1 27 145
- 0.36632 3 0 ack 40 ------- 2 3.0 0.1 27 145
r 0.36816 1 0 ack 40 ------- 1 1.0 0.0 25 136
+ 0.36816 0 1 tcp 1040 ------- 1 0.0 1.0 45 146
r 0.36816 3 0 ack 40 ------- 2 3.0 0.1 25 137
+ 0.36816 0 3 tcp 1040 ------- 2 0.1 3.0 45 147
- 0.3688 0 1 tcp 1040 ------- 1 0.0 1.0 31 98
- 0.3688 0 3 tcp 1040 ------- 2 0.1 3.0 31 100
r 0.37048 0 1 tcp 1040 ------- 1 0.0 1.0 28 87
+ 0.37048 1 0 ack 40 ------- 1 1.0 0.0 28 148
- 0.37048 1 0 ack 40 ------- 1 1.0 0.0 28 148
r 0.37048 0 3 tcp 1040 ------- 2 0.1 3.0 28 89
+ 0.37048 3 0 ack 40 ------- 2 3.0 0.1 28 149
- 0.37048 3 0 ack 40 ------- 2 3.0 0.1 28 149
r 0.37232 1 0 ack 40 ------- 1 1.0 0.0 26 140
+ 0.37232 0 1 tcp 1040 ------- 1 0.0 1.0 46 150
r 0.37232 3 0 ack 40 ------- 2 3.0 0.1 26 141
+ 0.37232 0 3 tcp 1040 ------- 2 0.1 3.0 46 151
- 0.37296 0 1 tcp 1040 ------- 1 0.0 1.0 32 99
- 0.37296 0 3 tcp 1040 ------- 2 0.1 3.0 32 101
r 0.37464 0 1 tcp 1040 ------- 1 0.0 1.0 29 92
+ 0.37464 1 0 ack 40 ------- 1 1.0 0.0 29 152
- 0.37464 1 0 ack 40 ------- 1 1.0 0.0 29 152
r 0.37464 0 3 tcp 1040 ------- 2 0.1 3.0 29 94
+ 0.37464 3 0 ack 40 ------- 2 3.0 0.1 29 153
- 0.37464 3 0 ack 40 ------- 2 3.0 0.1 29 153
r 0.37648 1 0 ack 40 ------- 1 1.0 0.0 27 144
+ 0.37648 0 1 tcp 1040 ------- 1 0.0 1.0 47 154
r 0.37648 3 0 ack 40 ------- 2 3.0 0.1 27 145
+ 0.37648 0 3 tcp 1040 ------- 2 0.1 3.0 47 155
- 0.37712 0 1 tcp 1040 ------- 1 0.0 1.0 33 104
- 0.37712 0 3 tcp 1040 ------- 2 0.1 3.0 33 106
r 0.3788 0 1 tcp 1040 ------- 1 0.0 1.0 30 93
+ 0.3788 1 0 ack 40 ------- 1 1.0 0.0 30 156
- 0.3788 1 0 ack 40 ------- 1 1.0 0.0 30 156
r 0.3788 0 3 tcp 1040 ------- 2 0.1 3.0 30 95
+ 0.3788 3 0 ack 40 ------- 2 3.0 0.1 30 157
- 0.3788 3 0 ack 40 ------- 2 3.0 0.1 30 157
r 0.38064 1 0 ack 40 ------- 1 1.0 0.0 28 148
+ 0.38064 0 1 tcp 1040 ------- 1 0.0 1.0 48 158
r 0.38064 3 0 ack 40 ------- 2 3.0 0.1 28 149
+ 0.38064 0 3 tcp 1040 ------- 2 0.1 3.0 48 159
- 0.38128 0 1 tcp 1040 ------- 1 0.0 1.0 34 105
- 0.38128 0 3 tcp 1040 ------- 2 0.1 3.0 34 107
r 0.38296 0 1 tcp 1040 ------- 1 0.0 1.0 31 98
+ 0.38296 1 0 ack 40 ------- 1 1.0 0.0 31 160
- 0.38296 1 0 ack 40 ------- 1 1.0 0.0 31 160
r 0.38296 0 3 tcp 1040 ------- 2 0.1 3.0 31 100
+ 0.38296 3 0 ack 40 ------- 2 3.0 0.1 31 161
- 0.38296 3 0 ack 40 ------- 2 3.0 0.1 31 161
r 0.3848 1 0 ack 40 ------- 1 1.0 0.0 29 152
+ 0.3848 0 1 tcp 1040 ------- 1 0.0 1.0 49 162
r 0.3848 3 0 ack 40 ------- 2 3.0 0.1 29 153
+ 0.3848 0 3 tcp 1040 ------- 2 0.1 3.0 49 163
- 0.38544 0 1 tcp 1040 ------- 1 0.0 1.0 35 110
- 0.38544 0 3 tcp 1040 ------- 2 0.1 3.0 35 112
r 0.38712 0 1 tcp 1040 ------- 1 0.0 1.0 32 99
+ 0.38712 1 0 ack 40 ------- 1 1.0 0.0 32 164
- 0.38712 1 0 ack 40 ------- 1 1.0 0.0 32 164
r 0.38712 0 3 tcp 1040 ------- 2 0.1 3.0 32 101
+ 0.38712 3 0 ack 40 ------- 2 3.0 0.1 32 165
- 0.38712 3 0 ack 40 ------- 2 3.0 0.1 32 165
r 0.38896 1 0 ack 40 ------- 1 1.0 0.0 30 156
+ 0.38896 0 1 tcp 1040 ------- 1 0.0 1.0 50 166
r 0.38896 3 0 ack 40 ------- 2 3.0 0.1 30 157
+ 0.38896 0 3 tcp 1040 ------- 2 0.1 3.0 50 167
- 0.3896 0 1 tcp 1040 ------- 1 0.0 1.0 36 111
- 0.3896 0 3 tcp 1040 ------- 2 0.1 3.0 36 113
r 0.39128 0 1 tcp 1040 ------- 1 0.0 1.0 33 104
+ 0.39128 1 0 ack 40 ------- 1 1.0 0.0 33 168
- 0.39128 1 0 ack 40 ------- 1 1.0 0.0 33 168
r 0.39128 0 3 tcp 1040 ------- 2 0.1 3.0 33 106
+ 0.39128 3 0 ack 40 ------- 2 3.0 0.1 33 169
- 0.39128 3 0 ack 40 ------- 2 3.0 0.1 33 169
r 0.39312 1 0 ack 40 ------- 1 1.0 0.0 31 160
+ 0.39312 0 1 tcp 1040 ------- 1 0.0 1.0 51 170
r 0.39312 3 0 ack 40 ------- 2 3.0 0.1 31 161
+ 0.39312 0 3 tcp 1040 ------- 2 0.1 3.0 51 171
- 0.39376 0 1 tcp 1040 ------- 1 0.0 1.0 37 116
- 0.39376 0 3 tcp 1040 ------- 2 0.1 3.0 37 118
r 0.39544 0 1 tcp 1040 ------- 1 0.0 1.0 34 105
+ 0.39544 1 0 ack 40 ------- 1 1.0 0.0 34 172
- 0.39544 1 0 ack 40 ------- 1 1.0 0.0 34 172
r 0.39544 0 3 tcp 1040 ------- 2 0.1 3.0 34 107
+ 0.39544 3 0 ack 40 ------- 2 3.0 0.1 34 173
- 0.39544 3 0 ack 40 ------- 2 3.0 0.1 34 173
r 0.39728 1 0 ack 40 ------- 1 1.0 0.0 32 164
+ 0.39728 0 1 tcp 1040 ------- 1 0.0 1.0 52 174
r 0.39728 3 0 ack 40 ------- 2 3.0 0.1 32 165
+ 0.39728 0 3 tcp 1040 ------- 2 0.1 3.0 52 175
- 0.39792 0 1 tcp 1040 ------- 1 0.0 1.0 38 117
- 0.39792 0 3 tcp 1040 ------- 2 0.1 3.0 38 119
r 0.3996 0 1 tcp 1040 ------- 1 0.0 1.0 35 110
+ 0.3996 1 0 ack 40 ------- 1 1.0 0.0 35 176
- 0.3996 1 0 ack 40 ------- 1 1.0 0.0 35 176
r 0.3996 0 3 tcp 1040 ------- 2 0.1 3.0 35 112
+ 0.3996 3 0 ack 40 ------- 2 3.0 0.1 35 177
- 0.3996 3 0 ack 40 ------- 2 3.0 0.1 35 177
r 0.40144 1 0 ack 40 ------- 1 1.0 0.0 33 168
+ 0.40144 0 1 tcp 1040 ------- 1 0.0 1.0 53 178
r 0.40144 3 0 ack 40 ------- 2 3.0 0.1 33 169
+ 0.40144 0 3 tcp 1040 ------- 2 0.1 3.0 53 179
- 0.40208 0 1 tcp 1040 ------- 1 0.0 1.0 39 122
- 0.40208 0 3 tcp 1040 ------- 2 0.1 3.0 39 123
r 0.40376 0 1 tcp 1040 ------- 1 0.0 1.0 36 111
+ 0.40376 1 0 ack 40 ------- 1 1.0 0.0 36 180
- 0.40376 1 0 ack 40 ------- 1 1.0 0.0 36 180
r 0.40376 0 3 tcp 1040 ------- 2 0.1 3.0 36 113
+ 0.40376 3 0 ack 40 ------- 2 3.0 0.1 36 181
- 0.40376 3 0 ack 40 ------- 2 3.0 0.1 36 181
r 0.4056 1 0 ack 40 ------- 1 1.0 0.0 34 172
+ 0.4056 0 1 tcp 1040 ------- 1 0.0 1.0 54 182
r 0.4056 3 0 ack 40 ------- 2 3.0 0.1 34 173
+ 0.4056 0 3 tcp 1040 ------- 2 0.1 3.0 54 183
- 0.40624 0 1 tcp 1040 ------- 1 0.0 1.0 40 126
- 0.40624 0 3 tcp 1040 ------- 2 0.1 3.0 40 127
r 0.40792 0 1 tcp 1040 ------- 1 0.0 1.0 37 116
+ 0.40792 1 0 ack 40 ------- 1 1.0 0.0 37 184
- 0.40792 1 0 ack 40 ------- 1 1.0 0.0 37 184
r 0.40792 0 3 tcp 1040 ------- 2 0.1 3.0 37 118
+ 0.40792 3 0 ack 40 ------- 2 3.0 0.1 37 185
- 0.40792 3 0 ack 40 ------- 2 3.0 0.1 37 185
r 0.40976 1 0 ack 40 ------- 1 1.0 0.0 35 176
+ 0.40976 0 1 tcp 1040 ------- 1 0.0 1.0 55 186
r 0.40976 3 0 ack 40 ------- 2 3.0 0.1 35 177
+ 0.40976 0 3 tcp 1040 ------- 2 0.1 3.0 55 187
- 0.4104 0 1 tcp 1040 ------- 1 0.0 1.0 41 130
- 0.4104 0 3 tcp 1040 ------- 2 0.1 3.0 41 131
r 0.41208 0 1 tcp 1040 ------- 1 0.0 1.0 38 117
+ 0.41208 1 0 ack 40 ------- 1 1.0 0.0 38 188
- 0.41208 1 0 ack 40 ------- 1 1.0 0.0 38 188
r 0.41208 0 3 tcp 1040 ------- 2 0.1 3.0 38 119
+ 0.41208 3 0 ack 40 ------- 2 3.0 0.1 38 189
- 0.41208 3 0 ack 40 ------- 2 3.0 0.1 38 189
r 0.41392 1 0 ack 40 ------- 1 1.0 0.0 36 180
+ 0.41392 0 1 tcp 1040 ------- 1 0.0 1.0 56 190
r 0.41392 3 0 ack 40 ------- 2 3.0 0.1 36 181
+ 0.41392 0 3 tcp 1040 ------- 2 0.1 3.0 56 191
- 0.41456 0 1 tcp 1040 ------- 1 0.0 1.0 42 134
- 0.41456 0 3 tcp 1040 ------- 2 0.1 3.0 42 135
r 0.41624 0 1 tcp 1040 ------- 1 0.0 1.0 39 122
+ 0.41624 1 0 ack 40 ------- 1 1.0 0.0 39 192
- 0.41624 1 0 ack 40 ------- 1 1.0 0.0 39 192
r 0.41624 0 3 tcp 1040 ------- 2 0.1 3.0 39 123
+ 0.41624 3 0 ack 40 ------- 2 3.0 0.1 39 193
- 0.41624 3 0 ack 40 ------- 2 3.0 0.1 39 193
r 0.41808 1 0 ack 40 ------- 1 1.0 0.0 37 184
+ 0.41808 0 1 tcp 1040 ------- 1 0.0 1.0 57 194
r 0.41808 3 0 ack 40 ------- 2 3.0 0.1 37 185
+ 0.41808 0 3 tcp 1040 ------- 2 0.1 3.0 57 195
- 0.41872 0 1 tcp 1040 ------- 1 0.0 1.0 43 138
- 0.41872 0 3 tcp 1040 ------- 2 0.1 3.0 43 139
r 0.4204 0 1 tcp 1040 ------- 1 0.0 1.0 40 126
+ 0.4204 1 0 ack 40 ------- 1 1.0 0.0 40 196
- 0.4204 1 0 ack 40 ------- 1 1.0 0.0 40 196
r 0.4204 0 3 tcp 1040 ------- 2 0.1 3.0 40 127
+ 0.4204 3 0 ack 40 ------- 2 3.0 0.1 40 197
- 0.4204 3 0 ack 40 ------- 2 3.0 0.1 40 197
r 0.42224 1 0 ack 40 ------- 1 1.0 0.0 38 188
+ 0.42224 0 1 tcp 1040 ------- 1 0.0 1.0 58 198
r 0.42224 3 0 ack 40 ------- 2 3.0 0.1 38 189
+ 0.42224 0 3 tcp 1040 ------- 2 0.1 3.0 58 199
- 0.42288 0 1 tcp 1040 ------- 1 0.0 1.0 44 142
- 0.42288 0 3 tcp 1040 ------- 2 0.1 3.0 44 143
r 0.42456 0 1 tcp 1040 ------- 1 0.0 1.0 41 130
+ 0.42456 1 0 ack 40 ------- 1 1.0 0.0 41 200
- 0.42456 1 0 ack 40 ------- 1 1.0 0.0 41 200
r 0.42456 0 3 tcp 1040 ------- 2 0.1 3.0 41 131
+ 0.42456 3 0 ack 40 ------- 2 3.0 0.1 41 201
- 0.42456 3 0 ack 40 ------- 2 3.0 0.1 41 201
r 0.4264 1 0 ack 40 ------- 1 1.0 0.0 39 192
+ 0.4264 0 1 tcp 1040 ------- 1 0.0 1.0 59 202
r 0.4264 3 0 ack 40 ------- 2 3.0 0.1 39 193
+ 0.4264 0 3 tcp 1040 ------- 2 0.1 3.0 59 203
- 0.42704 0 1 tcp 1040 ------- 1 0.0 1.0 45 146
- 0.42704 0 3 tcp 1040 ------- 2 0.1 3.0 45 147
r 0.42872 0 1 tcp 1040 ------- 1 0.0 1.0 42 134
+ 0.42872 1 0 ack 40 ------- 1 1.0 0.0 42 204
- 0.42872 1 0 ack 40 ------- 1 1.0 0.0 42 204
r 0.42872 0 3 tcp 1040 ------- 2 0.1 3.0 42 135
+ 0.42872 3 0 ack 40 ------- 2 3.0 0.1 42 205
- 0.42872 3 0 ack 40 ------- 2 3.0 0.1 42 205
r 0.43056 1 0 ack 40 ------- 1 1.0 0.0 40 196
+ 0.43056 0 1 tcp 1040 ------- 1 0.0 1.0 60 206
r 0.43056 3 0 ack 40 ------- 2 3.0 0.1 40 197
+ 0.43056 0 3 tcp 1040 ------- 2 0.1 3.0 60 207
- 0.4312 0 1 tcp 1040 ------- 1 0.0 1.0 46 150
- 0.4312 0 3 tcp 1040 ------- 2 0.1 3.0 46 151
r 0.43288 0 1 tcp 1040 ------- 1 0.0 1.0 43 138
+ 0.43288 1 0 ack 40 ------- 1 1.0 0.0 43 208
- 0.43288 1 0 ack 40 ------- 1 1.0 0.0 43 208
r 0.43288 0 3 tcp 1040 ------- 2 0.1 3.0 43 139
+ 0.43288 3 0 ack 40 ------- 2 3.0 0.1 43 209
- 0.43288 3 0 ack 40 ------- 2 3.0 0.1 43 209
r 0.43472 1 0 ack 40 ------- 1 1.0 0.0 41 200
+ 0.43472 0 1 tcp 1040 ------- 1 0.0 1.0 61 210
r 0.43472 3 0 ack 40 ------- 2 3.0 0.1 41 201
+ 0.43472 0 3 tcp 1040 ------- 2 0.1 3.0 61 211
- 0.43536 0 1 tcp 1040 ------- 1 0.0 1.0 47 154
- 0.43536 0 3 tcp 1040 ------- 2 0.1 3.0 47 155
r 0.43704 0 1 tcp 1040 ------- 1 0.0 1.0 44 142
+ 0.43704 1 0 ack 40 ------- 1 1.0 0.0 44 212
- 0.43704 1 0 ack 40 ------- 1 1.0 0.0 44 212
r 0.43704 0 3 tcp 1040 ------- 2 0.1 3.0 44 143
+ 0.43704 3 0 ack 40 ------- 2 3.0 0.1 44 213
- 0.43704 3 0 ack 40 ------- 2 3.0 0.1 44 213
r 0.43888 1 0 ack 40 ------- 1 1.0 0.0 42 204
+ 0.43888 0 1 tcp 1040 ------- 1 0.0 1.0 62 214
r 0.43888 3 0 ack 40 ------- 2 3.0 0.1 42 205
+ 0.43888 0 3 tcp 1040 ------- 2 0.1 3.0 62 215
- 0.43952 0 1 tcp 1040 ------- 1 0.0 1.0 48 158
- 0.43952 0 3 tcp 1040 ------- 2 0.1 3.0 48 159
r 0.4412 0 1 tcp 1040 ------- 1 0.0 1.0 45 146
+ 0.4412 1 0 ack 40 ------- 1 1.0 0.0 45 216
- 0.4412 1 0 ack 40 ------- 1 1.0 0.0 45 216
r 0.4412 0 3 tcp 1040 ------- 2 0.1 3.0 45 147
+ 0.4412 3 0 ack 40 ------- 2 3.0 0.1 45 217
- 0.4412 3 0 ack 40 ------- 2 3.0 0.1 45 217
r 0.44304 1 0 ack 40 ------- 1 1.0 0.0 43 208
+ 0.44304 0 1 tcp 1040 ------- 1 0.0 1.0 63 218
r 0.44304 3 0 ack 40 ------- 2 3.0 0.1 43 209
+ 0.44304 0 3 tcp 1040 ------- 2 0.1 3.0 63 219
- 0.44368 0 1 tcp 1040 ------- 1 0.0 1.0 49 162
- 0.44368 0 3 tcp 1040 ------- 2 0.1 3.0 49 163
r 0.44536 0 1 tcp 1040 ------- 1 0.0 1.0 46 150
+ 0.44536 1 0 ack 40 ------- 1 1.0 0.0 46 220
- 0.44536 1 0 ack 40 ------- 1 1.0 0.0 46 220
r 0.44536 0 3 tcp 1040 ------- 2 0.1 3.0 46 151
+ 0.44536 3 0 ack 40 ------- 2 3.0 0.1 46 221
- 0.44536 3 0 ack 40 ------- 2 3.0 0.1 46 221
r 0.4472 1 0 ack 40 ------- 1 1.0 0.0 44 212
+ 0.4472 0 1 tcp 1040 ------- 1 0.0 1.0 64 222
r 0.4472 3 0 ack 40 ------- 2 3.0 0.1 44 213
+ 0.4472 0 3 tcp 1040 ------- 2 0.1 3.0 64 223
- 0.44784 0 1 tcp 1040 ------- 1 0.0 1.0 50 166
- 0.44784 0 3 tcp 1040 ------- 2 0.1 3.0 50 167
r 0.44952 0 1 tcp 1040 ------- 1 0.0 1.0 47 154
+ 0.44952 1 0 ack 40 ------- 1 1.0 0.0 47 224
- 0.44952 1 0 ack 40 ------- 1 1.0 0.0 47 224
r 0.44952 0 3 tcp 1040 ------- 2 0.1 3.0 47 155
+ 0.44952 3 0 ack 40 ------- 2 3.0 0.1 47 225
- 0.44952 3 0 ack 40 ------- 2 3.0 0.1 47 225
r 0.45136 1 0 ack 40 ------- 1 1.0 0.0 45 216
+ 0.45136 0 1 tcp 1040 ------- 1 0.0 1.0 65 226
r 0.45136 3 0 ack 40 ------- 2 3.0 0.1 45 217
+ 0.45136 0 3 tcp 1040 ------- 2 0.1 3.0 65 227
- 0.452 0 1 tcp 1040 ------- 1 0.0 1.0 51 170
- 0.452 0 3 tcp 1040 ------- 2 0.1 3.0 51 171
r 0.45368 0 1 tcp 1040 ------- 1 0.0 1.0 48 158
+ 0.45368 1 0 ack 40 ------- 1 1.0 0.0 48 228
- 0.45368 1 0 ack 40 ------- 1 1.0 0.0 48 228
r 0.45368 0 3 tcp 1040 ------- 2 0.1 3.0 48 159
+ 0.45368 3 0 ack 40 ------- 2 3.0 0.1 48 229
- 0.45368 3 0 ack 40 ------- 2 3.0 0.1 48 229
r 0.45552 1 0 ack 40 ------- 1 1.0 0.0 46 220
+ 0.45552 0 1 tcp 1040 ------- 1 0.0 1.0 66 230
r 0.45552 3 0 ack 40 ------- 2 3.0 0.1 46 221
+ 0.45552 0 3 tcp 1040 ------- 2 0.1 3.0 66 231
- 0.45616 0 1 tcp 1040 ------- 1 0.0 1.0 52 174
- 0.45616 0 3 tcp 1040 ------- 2 0.1 3.0 52 175
r 0.45784 0 1 tcp 1040 ------- 1 0.0 1.0 49 162
+ 0.45784 1 0 ack 40 ------- 1 1.0 0.0 49 232
- 0.45784 1 0 ack 40 ------- 1 1.0 0.0 49 232
r 0.45784 0 3 tcp 1040 ------- 2 0.1 3.0 49 163
+ 0.45784 3 0 ack 40 ------- 2 3.0 0.1 49 233
- 0.45784 3 0 ack 40 ------- 2 3.0 0.1 49 233
r 0.45968 1 0 ack 40 ------- 1 1.0 0.0 47 224
+ 0.45968 0 1 tcp 1040 ------- 1 0.0 1.0 67 234
r 0.45968 3 0 ack 40 ------- 2 3.0 0.1 47 225
+ 0.45968 0 3 tcp 1040 ------- 2 0.1 3.0 67 235
- 0.46032 0 1 tcp 1040 ------- 1 0.0 1.0 53 178
- 0.46032 0 3 tcp 1040 ------- 2 0.1 3.0 53 179
r 0.462 0 1 tcp 1040 ------- 1 0.0 1.0 50 166
+ 0.462 1 0 ack 40 ------- 1 1.0 0.0 50 236
- 0.462 1 0 ack 40 ------- 1 1.0 0.0 50 236
r 0.462 0 3 tcp 1040 ------- 2 0.1 3.0 50 167
+ 0.462 3 0 ack 40 ------- 2 3.0 0.1 50 237
- 0.462 3 0 ack 40 ------- 2 3.0 0.1 50 237
r 0.46384 1 0 ack 40 ------- 1 1.0 0.0 48 228
+ 0.46384 0 1 tcp 1040 ------- 1 0.0 1.0 68 238
r 0.46384 3 0 ack 40 ------- 2 3.0 0.1 48 229
+ 0.46384 0 3 tcp 1040 ------- 2 0.1 3.0 68 239