V -t * -v 1.0a5 -a 0
A -t * -n 1 -p 0 -o 0x7fffffff -c 30 -a 1
A -t * -h 1 -m 1073741823 -s 0
c -t * -i 1 -n Blue
n -t * -a 0 -s 0 -S UP -v circle -c black -i black
n -t * -a 1 -s 1 -S UP -v circle -c black -i black
n -t * -a 2 -s 2 -S UP -v circle -c black -i black
l -t * -s 0 -d 2 -S UP -r 2000000 -D 0.01 -c black -o right-down
l -t * -s 1 -d 2 -S UP -r 2000000 -D 0.01 -c black -o left-down
+ -t 0.2 -s 0 -d 2 -p tcp -e 40 -c 1 -i 0 -a 1 -x {0.0 1.0 0 ------- null}
- -t 0.2 -s 0 -d 2 -p tcp -e 40 -c 1 -i 0 -a 1 -x {0.0 1.0 0 ------- null}
h -t 0.2 -s 0 -d 2 -p tcp -e 40 -c 1 -i 0 -a 1 -x {0.0 1.0 -1 ------- null}
r -t 0.21016 -s 0 -d 2 -p tcp -e 40 -c 1 -i 0 -a 1 -x {0.0 1.0 0 ------- null}
+ -t 0.21016 -s 2 -d 1 -p tcp -e 40 -c 1 -i 0 -a 1 -x {0.0 1.0 0 ------- null}
- -t 0.21016 -s 2 -d 1 -p tcp -e 40 -c 1 -i 0 -a 1 -x {0.0 1.0 0 ------- null}
h -t 0.21016 -s 2 -d 1 -p tcp -e 40 -c 1 -i 0 -a 1 -x {0.0 1.0 -1 ------- null}
r -t 0.22032 -s 2 -d 1 -p tcp -e 40 -c 1 -i 0 -a 1 -x {0.0 1.0 0 ------- null}
+ -t 0.22032 -s 1 -d 2 -p ack -e 40 -c 1 -i 1 -a 1 -x {1.0 0.0 0 ------- null}
- -t 0.22032 -s 1 -d 2 -p ack -e 40 -c 1 -i 1 -a 1 -x {1.0 0.0 0 ------- null}
h -t 0.22032 -s 1 -d 2 -p ack -e 40 -c 1 -i 1 -a 1 -x {1.0 0.0 -1 ------- null}
r -t 0.23048 -s 1 -d 2 -p ack -e 40 -c 1 -i 1 -a 1 -x {1.0 0.0 0 ------- null}
+ -t 0.23048 -s 2 -d 0 -p ack -e 40 -c 1 -i 1 -a 1 -x {1.0 0.0 0 ------- null}
- -t 0.23048 -s 2 -d 0 -p ack -e 40 -c 1 -i 1 -a 1 -x {1.0 0.0 0 ------- null}
h -t 0.23048 -s 2 -d 0 -p ack -e 40 -c 1 -i 1 -a 1 -x {1.0 0.0 -1 ------- null}
r -t 0.24064 -s 2 -d 0 -p ack -e 40 -c 1 -i 1 -a 1 -x {1.0 0.0 0 ------- null}
+ -t 0.24064 -s 0 -d 2 -p tcp -e 1040 -c 1 -i 2 -a 1 -x {0.0 1.0 1 ------- null}
- -t 0.24064 -s 0 -d 2 -p tcp -e 1040 -c 1 -i 2 -a 1 -x {0.0 1.0 1 ------- null}
h -t 0.24064 -s 0 -d 2 -p tcp -e 1040 -c 1 -i 2 -a 1 -x {0.0 1.0 -1 ------- null}
+ -t 0.24064 -s 0 -d 2 -p tcp -e 1040 -c 1 -i 3 -a 1 -x {0.0 1.0 2 ------- null}
- -t 0.2448 -s 0 -d 2 -p tcp -e 1040 -c 1 -i 3 -a 1 -x {0.0 1.0 2 ------- null}
h -t 0.2448 -s 0 -d 2 -p tcp -e 1040 -c 1 -i 3 -a 1 -x {0.0 1.0 -1 ------- null}
r -t 0.2548 -s 0 -d 2 -p tcp -e 1040 -c 1 -i 2 -a 1 -x {0.0 1.0 1 ------- null}
+ -t 0.2548 -s 2 -d 1 -p tcp -e 1040 -c 1 -i 2 -a 1 -x {0.0 1.0 1 ------- null}
- -t 0.2548 -s 2 -d 1 -p tcp -e 1040 -c 1 -i 2 -a 1 -x {0.0 1.0 1 ------- null}
h -t 0.2548 -s 2 -d 1 -p tcp -e 1040 -c 1 -i 2 -a 1 -x {0.0 1.0 -1 ------- null}
r -t 0.25896 -s 0 -d 2 -p tcp -e 1040 -c 1 -i 3 -a 1 -x {0.0 1.0 2 ------- null}
+ -t 0.25896 -s 2 -d 1 -p tcp -e 1040 -c 1 -i 3 -a 1 -x {0.0 1.0 2 ------- null}
- -t 0.25896 -s 2 -d 1 -p tcp -e 1040 -c 1 -i 3 -a 1 -x {0.0 1.0 2 ------- null}
h -t 0.25896 -s 2 -d 1 -p tcp -e 1040 -c 1 -i 3 -a 1 -x {0.0 1.0 -1 ------- null}
r -t 0.26896 -s 2 -d 1 -p tcp -e 1040 -c 1 -i 2 -a 1 -x {0.0 1.0 1 ------- null}
+ -t 0.26896 -s 1 -d 2 -p ack -e 40 -c 1 -i 4 -a 1 -x {1.0 0.0 1 ------- null}
- -t 0.26896 -s 1 -d 2 -p ack -e 40 -c 1 -i 4 -a 1 -x {1.0 0.0 1 ------- null}
h -t 0.26896 -s 1 -d 2 -p ack -e 40 -c 1 -i 4 -a 1 -x {1.0 0.0 -1 ------- null}
r -t 0.27312 -s 2 -d 1 -p tcp -e 1040 -c 1 -i 3 -a 1 -x {0.0 1.0 2 ------- null}
+ -t 0.27312 -s 1 -d 2 -p ack -e 40 -c 1 -i 5 -a 1 -x {1.0 0.0 2 ------- null}
- -t 0.27312 -s 1 -d 2 -p ack -e 40 -c 1 -i 5 -a 1 -x {1.0 0.0 2 ------- null}
h -t 0.27312 -s 1 -d 2 -p ack -e 40 -c 1 -i 5 -a 1 -x {1.0 0.0 -1 ------- null}
r -t 0.27912 -s 1 -d 2 -p ack -e 40 -c 1 -i 4 -a 1 -x {1.0 0.0 1 ------- null}
+ -t 0.27912 -s 2 -d 0 -p ack -e 40 -c 1 -i 4 -a 1 -x {1.0 0.0 1 ------- null}
- -t 0.27912 -s 2 -d 0 -p ack -e 40 -c 1 -i 4 -a 1 -x {1.0 0.0 1 ------- null}
h -t 0.27912 -s 2 -d 0 -p ack -e 40 -c 1 -i 4 -a 1 -x {1.0 0.0 -1 ------- null}
r -t 0.28328 -s 1 -d 2 -p ack -e 40 -c 1 -i 5 -a 1 -x {1.0 0.0 2 ------- null}
+ -t 0.28328 -s 2 -d 0 -p ack -e 40 -c 1 -i 5 -a 1 -x {1.0 0.0 2 ------- null}
- -t 0.28328 -s 2 -d 0 -p ack -e 40 -c 1 -i 5 -a 1 -x {1.0 0.0 2 ------- null}
h -t 0.28328 -s 2 -d 0 -p ack -e 40 -c 1 -i 5 -a 1 -x {1.0 0.0 -1 ------- null}
r -t 0.28928 -s 2 -d 0 -p ack -e 40 -c 1 -i 4 -a 1 -x {1.0 0.0 1 ------- null}
+ -t 0.28928 -s 0 -d 2 -p tcp -e 1040 -c 1 -i 6 -a 1 -x {0.0 1.0 3 ------- null}
- -t 0.28928 -s 0 -d 2 -p tcp -e 1040 -c 1 -i 6 -a 1 -x {0.0 1.0 3 ------- null}
h -t 0.28928 -s 0 -d 2 -p tcp -e 1040 -c 1 -i 6 -a 1 -x {0.0 1.0 -1 ------- null}
+ -t 0.28928 -s 0 -d 2 -p tcp -e 1040 -c 1 -i 7 -a 1 -x {0.0 1.0 4 ------- null}
r -t 0.29344 -s 2 -d 0 -p ack -e 40 -c 1 -i 5 -a 1 -x {1.0 0.0 2 ------- null}
+ -t 0.29344 -s 0 -d 2 -p tcp -e 1040 -c 1 -i 8 -a 1 -x {0.0 1.0 5 ------- null}
+ -t 0.29344 -s 0 -d 2 -p tcp -e 1040 -c 1 -i 9 -a 1 -x {0.0 1.0 6 ------- null}
- -t 0.29344 -s 0 -d 2 -p tcp -e 1040 -c 1 -i 7 -a 1 -x {0.0 1.0 4 ------- null}
h -t 0.29344 -s 0 -d 2 -p tcp -e 1040 -c 1 -i 7 -a 1 -x {0.0 1.0 -1 ------- null}
- -t 0.2976 -s 0 -d 2 -p tcp -e 1040 -c 1 -i 8 -a 1 -x {0.0 1.0 5 ------- null}
h -t 0.2976 -s 0 -d 2 -p tcp -e 1040 -c 1 -i 8 -a 1 -x {0.0 1.0 -1 ------- null}
- -t 0.30176 -s 0 -d 2 -p tcp -e 1040 -c 1 -i 9 -a 1 -x {0.0 1.0 6 ------- null}
h -t 0.30176 -s 0 -d 2 -p tcp -e 1040 -c 1 -i 9 -a 1 -x {0.0 1.0 -1 ------- null}
r -t 0.30344 -s 0 -d 2 -p tcp -e 1040 -c 1 -i 6 -a 1 -x {0.0 1.0 3 ------- null}
+ -t 0.30344 -s 2 -d 1 -p tcp -e 1040 -c 1 -i 6 -a 1 -x {0.0 1.0 3 ------- null}
- -t 0.30344 -s 2 -d 1 -p tcp -e 1040 -c 1 -i 6 -a 1 -x {0.0 1.0 3 ------- null}
h -t 0.30344 -s 2 -d 1 -p tcp -e 1040 -c 1 -i 6 -a 1 -x {0.0 1.0 -1 ------- null}
r -t 0.3076 -s 0 -d 2 -p tcp -e 1040 -c 1 -i 7 -a 1 -x {0.0 1.0 4 ------- null}
+ -t 0.3076 -s 2 -d 1 -p tcp -e 1040 -c 1 -i 7 -a 1 -x {0.0 1.0 4 ------- null}
- -t 0.3076 -s 2 -d 1 -p tcp -e 1040 -c 1 -i 7 -a 1 -x {0.0 1.0 4 ------- null}
h -t 0.3076 -s 2 -d 1 -p tcp -e 1040 -c 1 -i 7 -a 1 -x {0.0 1.0 -1 ------- null}
r -t 0.31176 -s 0 -d 2 -p tcp -e 1040 -c 1 -i 8 -a 1 -x {0.0 1.0 5 ------- null}
+ -t 0.31176 -s 2 -d 1 -p tcp -e 1040 -c 1 -i 8 -a 1 -x {0.0 1.0 5 ------- null}
- -t 0.31176 -s 2 -d 1 -p tcp -e 1040 -c 1 -i 8 -a 1 -x {0.0 1.0 5 ------- null}
h -t 0.31176 -s 2 -d 1 -p tcp -e 1040 -c 1 -i 8 -a 1 -x {0.0 1.0 -1 ------- null}
r -t 0.31592 -s 0 -d 2 -p tcp -e 1040 -c 1 -i 9 -a 1 -x {0.0 1.0 6 ------- null}
+ -t 0.31592 -s 2 -d 1 -p tcp -e 1040 -c 1 -i 9 -a 1 -x {0.0 1.0 6 ------- null}
- -t 0.31592 -s 2 -d 1 -p tcp -e 1040 -c 1 -i 9 -a 1 -x {0.0 1.0 6 ------- null}
h -t 0.31592 -s 2 -d 1 -p tcp -e 1040 -c 1 -i 9 -a 1 -x {0.0 1.0 -1 ------- null}
r -t 0.3176 -s 2 -d 1 -p tcp -e 1040 -c 1 -i 6 -a 1 -x {0.0 1.0 3 ------- null}
+ -t 0.3176 -s 1 -d 2 -p ack -e 40 -c 1 -i 10 -a 1 -x {1.0 0.0 3 ------- null}
- -t 0.3176 -s 1 -d 2 -p ack -e 40 -c 1 -i 10 -a 1 -x {1.0 0.0 3 ------- null}
h -t 0.3176 -s 1 -d 2 -p ack -e 40 -c 1 -i 10 -a 1 -x {1.0 0.0 -1 ------- null}
r -t 0.32176 -s 2 -d 1 -p tcp -e 1040 -c 1 -i 7 -a 1 -x {0.0 1.0 4 ------- null}
+ -t 0.32176 -s 1 -d 2 -p ack -e 40 -c 1 -i 11 -a 1 -x {1.0 0.0 4 ------- null}
- -t 0.32176 -s 1 -d 2 -p ack -e 40 -c 1 -i 11 -a 1 -x {1.0 0.0 4 ------- null}
h -t 0.32176 -s 1 -d 2 -p ack -e 40 -c 1 -i 11 -a 1 -x {1.0 0.0 -1 ------- null}
r -t 0.32592 -s 2 -d 1 -p tcp -e 1040 -c 1 -i 8 -a 1 -x {0.0 1.0 5 ------- null}
+ -t 0.32592 -s 1 -d 2 -p ack -e 40 -c 1 -i 12 -a 1 -x {1.0 0.0 5 ------- null}
- -t 0.32592 -s 1 -d 2 -p ack -e 40 -c 1 -i 12 -a 1 -x {1.0 0.0 5 ------- null}
h -t 0.32592 -s 1 -d 2 -p ack -e 40 -c 1 -i 12 -a 1 -x {1.0 0.0 -1 ------- null}
r -t 0.32776 -s 1 -d 2 -p ack -e 40 -c 1 -i 10 -a 1 -x {1.0 0.0 3 ------- null}
+ -t 0.32776 -s 2 -d 0 -p ack -e 40 -c 1 -i 10 -a 1 -x {1.0 0.0 3 ------- null}
- -t 0.32776 -s 2 -d 0 -p ack -e 40 -c 1 -i 10 -a 1 -x {1.0 0.0 3 ------- null}
h -t 0.32776 -s 2 -d 0 -p ack -e 40 -c 1 -i 10 -a 1 -x {1.0 0.0 -1 ------- null}
r -t 0.33008 -s 2 -d 1 -p tcp -e 1040 -c 1 -i 9 -a 1 -x {0.0 1.0 6 ------- null}
+ -t 0.33008 -s 1 -d 2 -p ack -e 40 -c 1 -i 13 -a 1 -x {1.0 0.0 6 ------- null}
- -t 0.33008 -s 1 -d 2 -p ack -e 40 -c 1 -i 13 -a 1 -x {1.0 0.0 6 ------- null}
h -t 0.33008 -s 1 -d 2 -p ack -e 40 -c 1 -i 13 -a 1 -x {1.0 0.0 -1 ------- null}
r -t 0.33192 -s 1 -d 2 -p ack -e 40 -c 1 -i 11 -a 1 -x {1.0 0.0 4 ------- null}
+ -t 0.33192 -s 2 -d 0 -p ack -e 40 -c 1 -i 11 -a 1 -x {1.0 0.0 4 ------- null}
- -t 0.33192 -s 2 -d 0 -p ack -e 40 -c 1 -i 11 -a 1 -x {1.0 0.0 4 ------- null}
h -t 0.33192 -s 2 -d 0 -p ack -e 40 -c 1 -i 11 -a 1 -x {1.0 0.0 -1 ------- null}
r -t 0.33608 -s 1 -d 2 -p ack -e 40 -c 1 -i 12 -a 1 -x {1.0 0.0 5 ------- null}
+ -t 0.33608 -s 2 -d 0 -p ack -e 40 -c 1 -i 12 -a 1 -x {1.0 0.0 5 ------- null}
- -t 0.33608 -s 2 -d 0 -p ack -e 40 -c 1 -i 12 -a 1 -x {1.0 0.0 5 ------- null}
h -t 0.33608 -s 2 -d 0 -p ack -e 40 -c 1 -i 12 -a 1 -x {1.0 0.0 -1 ------- null}
r -t 0.33792 -s 2 -d 0 -p ack -e 40 -c 1 -i 10 -a 1 -x {1.0 0.0 3 ------- null}
+ -t 0.33792 -s 0 -d 2 -p tcp -e 1040 -c 1 -i 14 -a 1 -x {0.0 1.0 7 ------- null}
- -t 0.33792 -s 0 -d 2 -p tcp -e 1040 -c 1 -i 14 -a 1 -x {0.0 1.0 7 ------- null}
h -t 0.33792 -s 0 -d 2 -p tcp -e 1040 -c 1 -i 14 -a 1 -x {0.0 1.0 -1 ------- null}
+ -t 0.33792 -s 0 -d 2 -p tcp -e 1040 -c 1 -i 15 -a 1 -x {0.0 1.0 8 ------- null}
r -t 0.34024 -s 1 -d 2 -p ack -e 40 -c 1 -i 13 -a 1 -x {1.0 0.0 6 ------- null}
+ -t 0.34024 -s 2 -d 0 -p ack -e 40 -c 1 -i 13 -a 1 -x {1.0 0.0 6 ------- null}
- -t 0.34024 -s 2 -d 0 -p ack -e 40 -c 1 -i 13 -a 1 -x {1.0 0.0 6 ------- null}
h -t 0.34024 -s 2 -d 0 -p ack -e 40 -c 1 -i 13 -a 1 -x {1.0 0.0 -1 ------- null}
r -t 0.34208 -s 2 -d 0 -p ack -e 40 -c 1 -i 11 -a 1 -x {1.0 0.0 4 ------- null}
+ -t 0.34208 -s 0 -d 2 -p tcp -e 1040 -c 1 -i 16 -a 1 -x {0.0 1.0 9 ------- null}
+ -t 0.34208 -s 0 -d 2 -p tcp -e 1040 -c 1 -i 17 -a 1 -x {0.0 1.0 10 ------- null}
- -t 0.34208 -s 0 -d 2 -p tcp -e 1040 -c 1 -i 15 -a 1 -x {0.0 1.0 8 ------- null}
h -t 0.34208 -s 0 -d 2 -p tcp -e 1040 -c 1 -i 15 -a 1 -x {0.0 1.0 -1 ------- null}
r -t 0.34624 -s 2 -d 0 -p ack -e 40 -c 1 -i 12 -a 1 -x {1.0 0.0 5 ------- null}
+ -t 0.34624 -s 0 -d 2 -p tcp -e 1040 -c 1 -i 18 -a 1 -x {0.0 1.0 11 ------- null}
+ -t 0.34624 -s 0 -d 2 -p tcp -e 1040 -c 1 -i 19 -a 1 -x {0.0 1.0 12 ------- null}
- -t 0.34624 -s 0 -d 2 -p tcp -e 1040 -c 1 -i 16 -a 1 -x {0.0 1.0 9 ------- null}
h -t 0.34624 -s 0 -d 2 -p tcp -e 1040 -c 1 -i 16 -a 1 -x {0.0 1.0 -1 ------- null}
r -t 0.3504 -s 2 -d 0 -p ack -e 40 -c 1 -i 13 -a 1 -x {1.0 0.0 6 ------- null}
+ -t 0.3504 -s 0 -d 2 -p tcp -e 1040 -c 1 -i 20 -a 1 -x {0.0 1.0 13 ------- null}
+ -t 0.3504 -s 0 -d 2 -p tcp -e 1040 -c 1 -i 21 -a 1 -x {0.0 1.0 14 ------- null}
- -t 0.3504 -s 0 -d 2 -p tcp -e 1040 -c 1 -i 17 -a 1 -x {0.0 1.0 10 ------- null}
h -t 0.3504 -s 0 -d 2 -p tcp -e 1040 -c 1 -i 17 -a 1 -x {0.0 1.0 -1 ------- null}
r -t 0.35208 -s 0 -d 2 -p tcp -e 1040 -c 1 -i 14 -a 1 -x {0.0 1.0 7 ------- null}
+ -t 0.35208 -s 2 -d 1 -p tcp -e 1040 -c 1 -i 14 -a 1 -x {0.0 1.0 7 ------- null}
- -t 0.35208 -s 2 -d 1 -p tcp -e 1040 -c 1 -i 14 -a 1 -x {0.0 1.0 7 ------- null}
h -t 0.35208 -s 2 -d 1 -p tcp -e 1040 -c 1 -i 14 -a 1 -x {0.0 1.0 -1 ------- null}
- -t 0.35456 -s 0 -d 2 -p tcp -e 1040 -c 1 -i 18 -a 1 -x {0.0 1.0 11 ------- null}
h -t 0.35456 -s 0 -d 2 -p tcp -e 1040 -c 1 -i 18 -a 1 -x {0.0 1.0 -1 ------- null}
r -t 0.35624 -s 0 -d 2 -p tcp -e 1040 -c 1 -i 15 -a 1 -x {0.0 1.0 8 ------- null}
+ -t 0.35624 -s 2 -d 1 -p tcp -e 1040 -c 1 -i 15 -a 1 -x {0.0 1.0 8 ------- null}
- -t 0.35624 -s 2 -d 1 -p tcp -e 1040 -c 1 -i 15 -a 1 -x {0.0 1.0 8 ------- null}
h -t 0.35624 -s 2 -d 1 -p tcp -e 1040 -c 1 -i 15 -a 1 -x {0.0 1.0 -1 ------- null}
- -t 0.35872 -s 0 -d 2 -p tcp -e 1040 -c 1 -i 19 -a 1 -x {0.0 1.0 12 ------- null}
h -t 0.35872 -s 0 -d 2 -p tcp -e 1040 -c 1 -i 19 -a 1 -x {0.0 1.0 -1 ------- null}
r -t 0.3604 -s 0 -d 2 -p tcp -e 1040 -c 1 -i 16 -a 1 -x {0.0 1.0 9 ------- null}
+ -t 0.3604 -s 2 -d 1 -p tcp -e 1040 -c 1 -i 16 -a 1 -x {0.0 1.0 9 ------- null}
- -t 0.3604 -s 2 -d 1 -p tcp -e 1040 -c 1 -i 16 -a 1 -x {0.0 1.0 9 ------- null}
h -t 0.3604 -s 2 -d 1 -p tcp -e 1040 -c 1 -i 16 -a 1 -x {0.0 1.0 -1 ------- null}
- -t 0.36288 -s 0 -d 2 -p tcp -e 1040 -c 1 -i 20 -a 1 -x {0.0 1.0 13 ------- null}
h -t 0.36288 -s 0 -d 2 -p tcp -e 1040 -c 1 -i 20 -a 1 -x {0.0 1.0 -1 ------- null}
r -t 0.36456 -s 0 -d 2 -p tcp -e 1040 -c 1 -i 17 -a 1 -x {0.0 1.0 10 ------- null}
+ -t 0.36456 -s 2 -d 1 -p tcp -e 1040 -c 1 -i 17 -a 1 -x {0.0 1.0 10 ------- null}
- -t 0.36456 -s 2 -d 1 -p tcp -e 1040 -c 1 -i 17 -a 1 -x {0.0 1.0 10 ------- null}
h -t 0.36456 -s 2 -d 1 -p tcp -e 1040 -c 1 -i 17 -a 1 -x {0.0 1.0 -1 ------- null}
r -t 0.36624 -s 2 -d 1 -p tcp -e 1040 -c 1 -i 14 -a 1 -x {0.0 1.0 7 ------- null}
+ -t 0.36624 -s 1 -d 2 -p ack -e 40 -c 1 -i 22 -a 1 -x {1.0 0.0 7 ------- null}
- -t 0.36624 -s 1 -d 2 -p ack -e 40 -c 1 -i 22 -a 1 -x {1.0 0.0 7 ------- null}
h -t 0.36624 -s 1 -d 2 -p ack -e 40 -c 1 -i 22 -a 1 -x {1.0 0.0 -1 ------- null}
- -t 0.36704 -s 0 -d 2 -p tcp -e 1040 -c 1 -i 21 -a 1 -x {0.0 1.0 14 ------- null}
h -t 0.36704 -s 0 -d 2 -p tcp -e 1040 -c 1 -i 21 -a 1 -x {0.0 1.0 -1 ------- null}
r -t 0.36872 -s 0 -d 2 -p tcp -e 1040 -c 1 -i 18 -a 1 -x {0.0 1.0 11 ------- null}
+ -t 0.36872 -s 2 -d 1 -p tcp -e 1040 -c 1 -i 18 -a 1 -x {0.0 1.0 11 ------- null}
- -t 0.36872 -s 2 -d 1 -p tcp -e 1040 -c 1 -i 18 -a 1 -x {0.0 1.0 11 ------- null}
h -t 0.36872 -s 2 -d 1 -p tcp -e 1040 -c 1 -i 18 -a 1 -x {0.0 1.0 -1 ------- null}
r -t 0.3704 -s 2 -d 1 -p tcp -e 1040 -c 1 -i 15 -a 1 -x {0.0 1.0 8 ------- null}
+ -t 0.3704 -s 1 -d 2 -p ack -e 40 -c 1 -i 23 -a 1 -x {1.0 0.0 8 ------- null}
- -t 0.3704 -s 1 -d 2 -p ack -e 40 -c 1 -i 23 -a 1 -x {1.0 0.0 8 ------- null}
h -t 0.3704 -s 1 -d 2 -p ack -e 40 -c 1 -i 23 -a 1 -x {1.0 0.0 -1 ------- null}
r -t 0.37288 -s 0 -d 2 -p tcp -e 1040 -c 1 -i 19 -a 1 -x {0.0 1.0 12 ------- null}
+ -t 0.37288 -s 2 -d 1 -p tcp -e 1040 -c 1 -i 19 -a 1 -x {0.0 1.0 12 ------- null}
- -t 0.37288 -s 2 -d 1 -p tcp -e 1040 -c 1 -i 19 -a 1 -x {0.0 1.0 12 ------- null}
h -t 0.37288 -s 2 -d 1 -p tcp -e 1040 -c 1 -i 19 -a 1 -x {0.0 1.0 -1 ------- null}
r -t 0.37456 -s 2 -d 1 -p tcp -e 1040 -c 1 -i 16 -a 1 -x {0.0 1.0 9 ------- null}
+ -t 0.37456 -s 1 -d 2 -p ack -e 40 -c 1 -i 24 -a 1 -x {1.0 0.0 9 ------- null}
- -t 0.37456 -s 1 -d 2 -p ack -e 40 -c 1 -i 24 -a 1 -x {1.0 0.0 9 ------- null}
h -t 0.37456 -s 1 -d 2 -p ack -e 40 -c 1 -i 24 -a 1 -x {1.0 0.0 -1 ------- null}
r -t 0.3764 -s 1 -d 2 -p ack -e 40 -c 1 -i 22 -a 1 -x {1.0 0.0 7 ------- null}
+ -t 0.3764 -s 2 -d 0 -p ack -e 40 -c 1 -i 22 -a 1 -x {1.0 0.0 7 ------- null}
- -t 0.3764 -s 2 -d 0 -p ack -e 40 -c 1 -i 22 -a 1 -x {1.0 0.0 7 ------- null}
h -t 0.3764 -s 2 -d 0 -p ack -e 40 -c 1 -i 22 -a 1 -x {1.0 0.0 -1 ------- null}
r -t 0.37704 -s 0 -d 2 -p tcp -e 1040 -c 1 -i 20 -a 1 -x {0.0 1.0 13 ------- null}
+ -t 0.37704 -s 2 -d 1 -p tcp -e 1040 -c 1 -i 20 -a 1 -x {0.0 1.0 13 ------- null}
- -t 0.37704 -s 2 -d 1 -p tcp -e 1040 -c 1 -i 20 -a 1 -x {0.0 1.0 13 ------- null}
h -t 0.37704 -s 2 -d 1 -p tcp -e 1040 -c 1 -i 20 -a 1 -x {0.0 1.0 -1 ------- null}
r -t 0.37872 -s 2 -d 1 -p tcp -e 1040 -c 1 -i 17 -a 1 -x {0.0 1.0 10 ------- null}
+ -t 0.37872 -s 1 -d 2 -p ack -e 40 -c 1 -i 25 -a 1 -x {1.0 0.0 10 ------- null}
- -t 0.37872 -s 1 -d 2 -p ack -e 40 -c 1 -i 25 -a 1 -x {1.0 0.0 10 ------- null}
h -t 0.37872 -s 1 -d 2 -p ack -e 40 -c 1 -i 25 -a 1 -x {1.0 0.0 -1 ------- null}
r -t 0.38056 -s 1 -d 2 -p ack -e 40 -c 1 -i 23 -a 1 -x {1.0 0.0 8 ------- null}
+ -t 0.38056 -s 2 -d 0 -p ack -e 40 -c 1 -i 23 -a 1 -x {1.0 0.0 8 ------- null}
- -t 0.38056 -s 2 -d 0 -p ack -e 40 -c 1 -i 23 -a 1 -x {1.0 0.0 8 ------- null}
h -t 0.38056 -s 2 -d 0 -p ack -e 40 -c 1 -i 23 -a 1 -x {1.0 0.0 -1 ------- null}
r -t 0.3812 -s 0 -d 2 -p tcp -e 1040 -c 1 -i 21 -a 1 -x {0.0 1.0 14 ------- null}
+ -t 0.3812 -s 2 -d 1 -p tcp -e 1040 -c 1 -i 21 -a 1 -x {0.0 1.0 14 ------- null}
- -t 0.3812 -s 2 -d 1 -p tcp -e 1040 -c 1 -i 21 -a 1 -x {0.0 1.0 14 ------- null}
h -t 0.3812 -s 2 -d 1 -p tcp -e 1040 -c 1 -i 21 -a 1 -x {0.0 1.0 -1 ------- null}
r -t 0.38288 -s 2 -d 1 -p tcp -e 1040 -c 1 -i 18 -a 1 -x {0.0 1.0 11 ------- null}
+ -t 0.38288 -s 1 -d 2 -p ack -e 40 -c 1 -i 26 -a 1 -x {1.0 0.0 11 ------- null}
- -t 0.38288 -s 1 -d 2 -p ack -e 40 -c 1 -i 26 -a 1 -x {1.0 0.0 11 ------- null}
h -t 0.38288 -s 1 -d 2 -p ack -e 40 -c 1 -i 26 -a 1 -x {1.0 0.0 -1 ------- null}
r -t 0.38472 -s 1 -d 2 -p ack -e 40 -c 1 -i 24 -a 1 -x {1.0 0.0 9 ------- null}
+ -t 0.38472 -s 2 -d 0 -p ack -e 40 -c 1 -i 24 -a 1 -x {1.0 0.0 9 ------- null}
- -t 0.38472 -s 2 -d 0 -p ack -e 40 -c 1 -i 24 -a 1 -x {1.0 0.0 9 ------- null}
h -t 0.38472 -s 2 -d 0 -p ack -e 40 -c 1 -i 24 -a 1 -x {1.0 0.0 -1 ------- null}
r -t 0.38656 -s 2 -d 0 -p ack -e 40 -c 1 -i 22 -a 1 -x {1.0 0.0 7 ------- null}
+ -t 0.38656 -s 0 -d 2 -p tcp -e 1040 -c 1 -i 27 -a 1 -x {0.0 1.0 15 ------- null}
- -t 0.38656 -s 0 -d 2 -p tcp -e 1040 -c 1 -i 27 -a 1 -x {0.0 1.0 15 ------- null}
h -t 0.38656 -s 0 -d 2 -p tcp -e 1040 -c 1 -i 27 -a 1 -x {0.0 1.0 -1 ------- null}
+ -t 0.38656 -s 0 -d 2 -p tcp -e 1040 -c 1 -i 28 -a 1 -x {0.0 1.0 16 ------- null}
r -t 0.38704 -s 2 -d 1 -p tcp -e 1040 -c 1 -i 19 -a 1 -x {0.0 1.0 12 ------- null}
+ -t 0.38704 -s 1 -d 2 -p ack -e 40 -c 1 -i 29 -a 1 -x {1.0 0.0 12 ------- null}
- -t 0.38704 -s 1 -d 2 -p ack -e 40 -c 1 -i 29 -a 1 -x {1.0 0.0 12 ------- null}
h -t 0.38704 -s 1 -d 2 -p ack -e 40 -c 1 -i 29 -a 1 -x {1.0 0.0 -1 ------- null}
r -t 0.38888 -s 1 -d 2 -p ack -e 40 -c 1 -i 25 -a 1 -x {1.0 0.0 10 ------- null}
+ -t 0.38888 -s 2 -d 0 -p ack -e 40 -c 1 -i 25 -a 1 -x {1.0 0.0 10 ------- null}
- -t 0.38888 -s 2 -d 0 -p ack -e 40 -c 1 -i 25 -a 1 -x {1.0 0.0 10 ------- null}
h -t 0.38888 -s 2 -d 0 -p ack -e 40 -c 1 -i 25 -a 1 -x {1.0 0.0 -1 ------- null}
r -t 0.39072 -s 2 -d 0 -p ack -e 40 -c 1 -i 23 -a 1 -x {1.0 0.0 8 ------- null}
+ -t 0.39072 -s 0 -d 2 -p tcp -e 1040 -c 1 -i 30 -a 1 -x {0.0 1.0 17 ------- null}
+ -t 0.39072 -s 0 -d 2 -p tcp -e 1040 -c 1 -i 31 -a 1 -x {0.0 1.0 18 ------- null}
- -t 0.39072 -s 0 -d 2 -p tcp -e 1040 -c 1 -i 28 -a 1 -x {0.0 1.0 16 ------- null}
h -t 0.39072 -s 0 -d 2 -p tcp -e 1040 -c 1 -i 28 -a 1 -x {0.0 1.0 -1 ------- null}
r -t 0.3912 -s 2 -d 1 -p tcp -e 1040 -c 1 -i 20 -a 1 -x {0.0 1.0 13 ------- null}
+ -t 0.3912 -s 1 -d 2 -p ack -e 40 -c 1 -i 32 -a 1 -x {1.0 0.0 13 ------- null}
- -t 0.3912 -s 1 -d 2 -p ack -e 40 -c 1 -i 32 -a 1 -x {1.0 0.0 13 ------- null}
h -t 0.3912 -s 1 -d 2 -p ack -e 40 -c 1 -i 32 -a 1 -x {1.0 0.0 -1 ------- null}
r -t 0.39304 -s 1 -d 2 -p ack -e 40 -c 1 -i 26 -a 1 -x {1.0 0.0 11 ------- null}
+ -t 0.39304 -s 2 -d 0 -p ack -e 40 -c 1 -i 26 -a 1 -x {1.0 0.0 11 ------- null}
- -t 0.39304 -s 2 -d 0 -p ack -e 40 -c 1 -i 26 -a 1 -x {1.0 0.0 11 ------- null}
h -t 0.39304 -s 2 -d 0 -p ack -e 40 -c 1 -i 26 -a 1 -x {1.0 0.0 -1 ------- null}
r -t 0.39488 -s 2 -d 0 -p ack -e 40 -c 1 -i 24 -a 1 -x {1.0 0.0 9 ------- null}
+ -t 0.39488 -s 0 -d 2 -p tcp -e 1040 -c 1 -i 33 -a 1 -x {0.0 1.0 19 ------- null}
+ -t 0.39488 -s 0 -d 2 -p tcp -e 1040 -c 1 -i 34 -a 1 -x {0.0 1.0 20 ------- null}
- -t 0.39488 -s 0 -d 2 -p tcp -e 1040 -c 1 -i 30 -a 1 -x {0.0 1.0 17 ------- null}
h -t 0.39488 -s 0 -d 2 -p tcp -e 1040 -c 1 -i 30 -a 1 -x {0.0 1.0 -1 ------- null}
r -t 0.39536 -s 2 -d 1 -p tcp -e 1040 -c 1 -i 21 -a 1 -x {0.0 1.0 14 ------- null}
+ -t 0.39536 -s 1 -d 2 -p ack -e 40 -c 1 -i 35 -a 1 -x {1.0 0.0 14 ------- null}
- -t 0.39536 -s 1 -d 2 -p ack -e 40 -c 1 -i 35 -a 1 -x {1.0 0.0 14 ------- null}
h -t 0.39536 -s 1 -d 2 -p ack -e 40 -c 1 -i 35 -a 1 -x {1.0 0.0 -1 ------- null}
r -t 0.3972 -s 1 -d 2 -p ack -e 40 -c 1 -i 29 -a 1 -x {1.0 0.0 12 ------- null}
+ -t 0.3972 -s 2 -d 0 -p ack -e 40 -c 1 -i 29 -a 1 -x {1.0 0.0 12 ------- null}
- -t 0.3972 -s 2 -d 0 -p ack -e 40 -c 1 -i 29 -a 1 -x {1.0 0.0 12 ------- null}
h -t 0.3972 -s 2 -d 0 -p ack -e 40 -c 1 -i 29 -a 1 -x {1.0 0.0 -1 ------- null}
r -t 0.39904 -s 2 -d 0 -p ack -e 40 -c 1 -i 25 -a 1 -x {1.0 0.0 10 ------- null}
+ -t 0.39904 -s 0 -d 2 -p tcp -e 1040 -c 1 -i 36 -a 1 -x {0.0 1.0 21 ------- null}
+ -t 0.39904 -s 0 -d 2 -p tcp -e 1040 -c 1 -i 37 -a 1 -x {0.0 1.0 22 ------- null}
- -t 0.39904 -s 0 -d 2 -p tcp -e 1040 -c 1 -i 31 -a 1 -x {0.0 1.0 18 ------- null}
h -t 0.39904 -s 0 -d 2 -p tcp -e 1040 -c 1 -i 31 -a 1 -x {0.0 1.0 -1 ------- null}
r -t 0.40072 -s 0 -d 2 -p tcp -e 1040 -c 1 -i 27 -a 1 -x {0.0 1.0 15 ------- null}
+ -t 0.40072 -s 2 -d 1 -p tcp -e 1040 -c 1 -i 27 -a 1 -x {0.0 1.0 15 ------- null}
- -t 0.40072 -s 2 -d 1 -p tcp -e 1040 -c 1 -i 27 -a 1 -x {0.0 1.0 15 ------- null}
h -t 0.40072 -s 2 -d 1 -p tcp -e 1040 -c 1 -i 27 -a 1 -x {0.0 1.0 -1 ------- null}
r -t 0.40136 -s 1 -d 2 -p ack -e 40 -c 1 -i 32 -a 1 -x {1.0 0.0 13 ------- null}
+ -t 0.40136 -s 2 -d 0 -p ack -e 40 -c 1 -i 32 -a 1 -x {1.0 0.0 13 ------- null}
- -t 0.40136 -s 2 -d 0 -p ack -e 40 -c 1 -i 32 -a 1 -x {1.0 0.0 13 ------- null}
h -t 0.40136 -s 2 -d 0 -p ack -e 40 -c 1 -i 32 -a 1 -x {1.0 0.0 -1 ------- null}
r -t 0.4032 -s 2 -d 0 -p ack -e 40 -c 1 -i 26 -a 1 -x {1.0 0.0 11 ------- null}
+ -t 0.4032 -s 0 -d 2 -p tcp -e 1040 -c 1 -i 38 -a 1 -x {0.0 1.0 23 ------- null}
+ -t 0.4032 -s 0 -d 2 -p tcp -e 1040 -c 1 -i 39 -a 1 -x {0.0 1.0 24 ------- null}
- -t 0.4032 -s 0 -d 2 -p tcp -e 1040 -c 1 -i 33 -a 1 -x {0.0 1.0 19 ------- null}
h -t 0.4032 -s 0 -d 2 -p tcp -e 1040 -c 1 -i 33 -a 1 -x {0.0 1.0 -1 ------- null}
r -t 0.40488 -s 0 -d 2 -p tcp -e 1040 -c 1 -i 28 -a 1 -x {0.0 1.0 16 ------- null}
+ -t 0.40488 -s 2 -d 1 -p tcp -e 1040 -c 1 -i 28 -a 1 -x {0.0 1.0 16 ------- null}
- -t 0.40488 -s 2 -d 1 -p tcp -e 1040 -c 1 -i 28 -a 1 -x {0.0 1.0 16 ------- null}
h -t 0.40488 -s 2 -d 1 -p tcp -e 1040 -c 1 -i 28 -a 1 -x {0.0 1.0 -1 ------- null}
r -t 0.40552 -s 1 -d 2 -p ack -e 40 -c 1 -i 35 -a 1 -x {1.0 0.0 14 ------- null}
+ -t 0.40552 -s 2 -d 0 -p ack -e 40 -c 1 -i 35 -a 1 -x {1.0 0.0 14 ------- null}
- -t 0.40552 -s 2 -d 0 -p ack -e 40 -c 1 -i 35 -a 1 -x {1.0 0.0 14 ------- null}
h -t 0.40552 -s 2 -d 0 -p ack -e 40 -c 1 -i 35 -a 1 -x {1.0 0.0 -1 ------- null}
r -t 0.40736 -s 2 -d 0 -p ack -e 40 -c 1 -i 29 -a 1 -x {1.0 0.0 12 ------- null}
+ -t 0.40736 -s 0 -d 2 -p tcp -e 1040 -c 1 -i 40 -a 1 -x {0.0 1.0 25 ------- null}
+ -t 0.40736 -s 0 -d 2 -p tcp -e 1040 -c 1 -i 41 -a 1 -x {0.0 1.0 26 ------- null}
- -t 0.40736 -s 0 -d 2 -p tcp -e 1040 -c 1 -i 34 -a 1 -x {0.0 1.0 20 ------- null}
h -t 0.40736 -s 0 -d 2 -p tcp -e 1040 -c 1 -i 34 -a 1 -x {0.0 1.0 -1 ------- null}
r -t 0.40904 -s 0 -d 2 -p tcp -e 1040 -c 1 -i 30 -a 1 -x {0.0 1.0 17 ------- null}
+ -t 0.40904 -s 2 -d 1 -p tcp -e 1040 -c 1 -i 30 -a 1 -x {0.0 1.0 17 ------- null}
- -t 0.40904 -s 2 -d 1 -p tcp -e 1040 -c 1 -i 30 -a 1 -x {0.0 1.0 17 ------- null}
h -t 0.40904 -s 2 -d 1 -p tcp -e 1040 -c 1 -i 30 -a 1 -x {0.0 1.0 -1 ------- null}
r -t 0.41152 -s 2 -d 0 -p ack -e 40 -c 1 -i 32 -a 1 -x {1.0 0.0 13 ------- null}
+ -t 0.41152 -s 0 -d 2 -p tcp -e 1040 -c 1 -i 42 -a 1 -x {0.0 1.0 27 ------- null}
+ -t 0.41152 -s 0 -d 2 -p tcp -e 1040 -c 1 -i 43 -a 1 -x {0.0 1.0 28 ------- null}
- -t 0.41152 -s 0 -d 2 -p tcp -e 1040 -c 1 -i 36 -a 1 -x {0.0 1.0 21 ------- null}
h -t 0.41152 -s 0 -d 2 -p tcp -e 1040 -c 1 -i 36 -a 1 -x {0.0 1.0 -1 ------- null}
r -t 0.4132 -s 0 -d 2 -p tcp -e 1040 -c 1 -i 31 -a 1 -x {0.0 1.0 18 ------- null}
+ -t 0.4132 -s 2 -d 1 -p tcp -e 1040 -c 1 -i 31 -a 1 -x {0.0 1.0 18 ------- null}
- -t 0.4132 -s 2 -d 1 -p tcp -e 1040 -c 1 -i 31 -a 1 -x {0.0 1.0 18 ------- null}
h -t 0.4132 -s 2 -d 1 -p tcp -e 1040 -c 1 -i 31 -a 1 -x {0.0 1.0 -1 ------- null}
r -t 0.41488 -s 2 -d 1 -p tcp -e 1040 -c 1 -i 27 -a 1 -x {0.0 1.0 15 ------- null}
+ -t 0.41488 -s 1 -d 2 -p ack -e 40 -c 1 -i 44 -a 1 -x {1.0 0.0 15 ------- null}
- -t 0.41488 -s 1 -d 2 -p ack -e 40 -c 1 -i 44 -a 1 -x {1.0 0.0 15 ------- null}
h -t 0.41488 -s 1 -d 2 -p ack -e 40 -c 1 -i 44 -a 1 -x {1.0 0.0 -1 ------- null}
r -t 0.41568 -s 2 -d 0 -p ack -e 40 -c 1 -i 35 -a 1 -x {1.0 0.0 14 ------- null}
+ -t 0.41568 -s 0 -d 2 -p tcp -e 1040 -c 1 -i 45 -a 1 -x {0.0 1.0 29 ------- null}
+ -t 0.41568 -s 0 -d 2 -p tcp -e 1040 -c 1 -i 46 -a 1 -x {0.0 1.0 30 ------- null}
- -t 0.41568 -s 0 -d 2 -p tcp -e 1040 -c 1 -i 37 -a 1 -x {0.0 1.0 22 ------- null}
h -t 0.41568 -s 0 -d 2 -p tcp -e 1040 -c 1 -i 37 -a 1 -x {0.0 1.0 -1 ------- null}
r -t 0.41736 -s 0 -d 2 -p tcp -e 1040 -c 1 -i 33 -a 1 -x {0.0 1.0 19 ------- null}
+ -t 0.41736 -s 2 -d 1 -p tcp -e 1040 -c 1 -i 33 -a 1 -x {0.0 1.0 19 ------- null}
- -t 0.41736 -s 2 -d 1 -p tcp -e 1040 -c 1 -i 33 -a 1 -x {0.0 1.0 19 ------- null}
h -t 0.41736 -s 2 -d 1 -p tcp -e 1040 -c 1 -i 33 -a 1 -x {0.0 1.0 -1 ------- null}
r -t 0.41904 -s 2 -d 1 -p tcp -e 1040 -c 1 -i 28 -a 1 -x {0.0 1.0 16 ------- null}
+ -t 0.41904 -s 1 -d 2 -p ack -e 40 -c 1 -i 47 -a 1 -x {1.0 0.0 16 ------- null}
- -t 0.41904 -s 1 -d 2 -p ack -e 40 -c 1 -i 47 -a 1 -x {1.0 0.0 16 ------- null}
h -t 0.41904 -s 1 -d 2 -p ack -e 40 -c 1 -i 47 -a 1 -x {1.0 0.0 -1 ------- null}
- -t 0.41984 -s 0 -d 2 -p tcp -e 1040 -c 1 -i 38 -a 1 -x {0.0 1.0 23 ------- null}
h -t 0.41984 -s 0 -d 2 -p tcp -e 1040 -c 1 -i 38 -a 1 -x {0.0 1.0 -1 ------- null}
r -t 0.42152 -s 0 -d 2 -p tcp -e 1040 -c 1 -i 34 -a 1 -x {0.0 1.0 20 ------- null}
+ -t 0.42152 -s 2 -d 1 -p tcp -e 1040 -c 1 -i 34 -a 1 -x {0.0 1.0 20 ------- null}
- -t 0.42152 -s 2 -d 1 -p tcp -e 1040 -c 1 -i 34 -a 1 -x {0.0 1.0 20 ------- null}
h -t 0.42152 -s 2 -d 1 -p tcp -e 1040 -c 1 -i 34 -a 1 -x {0.0 1.0 -1 ------- null}
r -t 0.4232 -s 2 -d 1 -p tcp -e 1040 -c 1 -i 30 -a 1 -x {0.0 1.0 17 ------- null}
+ -t 0.4232 -s 1 -d 2 -p ack -e 40 -c 1 -i 48 -a 1 -x {1.0 0.0 17 ------- null}
- -t 0.4232 -s 1 -d 2 -p ack -e 40 -c 1 -i 48 -a 1 -x {1.0 0.0 17 ------- null}
h -t 0.4232 -s 1 -d 2 -p ack -e 40 -c 1 -i 48 -a 1 -x {1.0 0.0 -1 ------- null}
- -t 0.424 -s 0 -d 2 -p tcp -e 1040 -c 1 -i 39 -a 1 -x {0.0 1.0 24 ------- null}
h -t 0.424 -s 0 -d 2 -p tcp -e 1040 -c 1 -i 39 -a 1 -x {0.0 1.0 -1 ------- null}
r -t 0.42504 -s 1 -d 2 -p ack -e 40 -c 1 -i 44 -a 1 -x {1.0 0.0 15 ------- null}
+ -t 0.42504 -s 2 -d 0 -p ack -e 40 -c 1 -i 44 -a 1 -x {1.0 0.0 15 ------- null}
- -t 0.42504 -s 2 -d 0 -p ack -e 40 -c 1 -i 44 -a 1 -x {1.0 0.0 15 ------- null}
h -t 0.42504 -s 2 -d 0 -p ack -e 40 -c 1 -i 44 -a 1 -x {1.0 0.0 -1 ------- null}
r -t 0.42568 -s 0 -d 2 -p tcp -e 1040 -c 1 -i 36 -a 1 -x {0.0 1.0 21 ------- null}
+ -t 0.42568 -s 2 -d 1 -p tcp -e 1040 -c 1 -i 36 -a 1 -x {0.0 1.0 21 ------- null}
- -t 0.42568 -s 2 -d 1 -p tcp -e 1040 -c 1 -i 36 -a 1 -x {0.0 1.0 21 ------- null}
h -t 0.42568 -s 2 -d 1 -p tcp -e 1040 -c 1 -i 36 -a 1 -x {0.0 1.0 -1 ------- null}
r -t 0.42736 -s 2 -d 1 -p tcp -e 1040 -c 1 -i 31 -a 1 -x {0.0 1.0 18 ------- null}
+ -t 0.42736 -s 1 -d 2 -p ack -e 40 -c 1 -i 49 -a 1 -x {1.0 0.0 18 ------- null}
- -t 0.42736 -s 1 -d 2 -p ack -e 40 -c 1 -i 49 -a 1 -x {1.0 0.0 18 ------- null}
h -t 0.42736 -s 1 -d 2 -p ack -e 40 -c 1 -i 49 -a 1 -x {1.0 0.0 -1 ------- null}
- -t 0.42816 -s 0 -d 2 -p tcp -e 1040 -c 1 -i 40 -a 1 -x {0.0 1.0 25 ------- null}
h -t 0.42816 -s 0 -d 2 -p tcp -e 1040 -c 1 -i 40 -a 1 -x {0.0 1.0 -1 ------- null}
r -t 0.4292 -s 1 -d 2 -p ack -e 40 -c 1 -i 47 -a 1 -x {1.0 0.0 16 ------- null}
+ -t 0.4292 -s 2 -d 0 -p ack -e 40 -c 1 -i 47 -a 1 -x {1.0 0.0 16 ------- null}
- -t 0.4292 -s 2 -d 0 -p ack -e 40 -c 1 -i 47 -a 1 -x {1.0 0.0 16 ------- null}
h -t 0.4292 -s 2 -d 0 -p ack -e 40 -c 1 -i 47 -a 1 -x {1.0 0.0 -1 ------- null}
r -t 0.42984 -s 0 -d 2 -p tcp -e 1040 -c 1 -i 37 -a 1 -x {0.0 1.0 22 ------- null}
+ -t 0.42984 -s 2 -d 1 -p tcp -e 1040 -c 1 -i 37 -a 1 -x {0.0 1.0 22 ------- null}
- -t 0.42984 -s 2 -d 1 -p tcp -e 1040 -c 1 -i 37 -a 1 -x {0.0 1.0 22 ------- null}
h -t 0.42984 -s 2 -d 1 -p tcp -e 1040 -c 1 -i 37 -a 1 -x {0.0 1.0 -1 ------- null}
r -t 0.43152 -s 2 -d 1 -p tcp -e 1040 -c 1 -i 33 -a 1 -x {0.0 1.0 19 ------- null}
+ -t 0.43152 -s 1 -d 2 -p ack -e 40 -c 1 -i 50 -a 1 -x {1.0 0.0 19 ------- null}
- -t 0.43152 -s 1 -d 2 -p ack -e 40 -c 1 -i 50 -a 1 -x {1.0 0.0 19 ------- null}
h -t 0.43152 -s 1 -d 2 -p ack -e 40 -c 1 -i 50 -a 1 -x {1.0 0.0 -1 ------- null}
- -t 0.43232 -s 0 -d 2 -p tcp -e 1040 -c 1 -i 41 -a 1 -x {0.0 1.0 26 ------- null}
h -t 0.43232 -s 0 -d 2 -p tcp -e 1040 -c 1 -i 41 -a 1 -x {0.0 1.0 -1 ------- null}
r -t 0.43336 -s 1 -d 2 -p ack -e 40 -c 1 -i 48 -a 1 -x {1.0 0.0 17 ------- null}
+ -t 0.43336 -s 2 -d 0 -p ack -e 40 -c 1 -i 48 -a 1 -x {1.0 0.0 17 ------- null}
- -t 0.43336 -s 2 -d 0 -p ack -e 40 -c 1 -i 48 -a 1 -x {1.0 0.0 17 ------- null}
h -t 0.43336 -s 2 -d 0 -p ack -e 40 -c 1 -i 48 -a 1 -x {1.0 0.0 -1 ------- null}
r -t 0.434 -s 0 -d 2 -p tcp -e 1040 -c 1 -i 38 -a 1 -x {0.0 1.0 23 ------- null}
+ -t 0.434 -s 2 -d 1 -p tcp -e 1040 -c 1 -i 38 -a 1 -x {0.0 1.0 23 ------- null}
- -t 0.434 -s 2 -d 1 -p tcp -e 1040 -c 1 -i 38 -a 1 -x {0.0 1.0 23 ------- null}
h -t 0.434 -s 2 -d 1 -p tcp -e 1040 -c 1 -i 38 -a 1 -x {0.0 1.0 -1 ------- null}
r -t 0.4352 -s 2 -d 0 -p ack -e 40 -c 1 -i 44 -a 1 -x {1.0 0.0 15 ------- null}
+ -t 0.4352 -s 0 -d 2 -p tcp -e 1040 -c 1 -i 51 -a 1 -x {0.0 1.0 31 ------- null}
+ -t 0.4352 -s 0 -d 2 -p tcp -e 1040 -c 1 -i 52 -a 1 -x {0.0 1.0 32 ------- null}
r -t 0.43568 -s 2 -d 1 -p tcp -e 1040 -c 1 -i 34 -a 1 -x {0.0 1.0 20 ------- null}
+ -t 0.43568 -s 1 -d 2 -p ack -e 40 -c 1 -i 53 -a 1 -x {1.0 0.0 20 ------- null}
- -t 0.43568 -s 1 -d 2 -p ack -e 40 -c 1 -i 53 -a 1 -x {1.0 0.0 20 ------- null}
h -t 0.43568 -s 1 -d 2 -p ack -e 40 -c 1 -i 53 -a 1 -x {1.0 0.0 -1 ------- null}
- -t 0.43648 -s 0 -d 2 -p tcp -e 1040 -c 1 -i 42 -a 1 -x {0.0 1.0 27 ------- null}
h -t 0.43648 -s 0 -d 2 -p tcp -e 1040 -c 1 -i 42 -a 1 -x {0.0 1.0 -1 ------- null}
r -t 0.43752 -s 1 -d 2 -p ack -e 40 -c 1 -i 49 -a 1 -x {1.0 0.0 18 ------- null}
+ -t 0.43752 -s 2 -d 0 -p ack -e 40 -c 1 -i 49 -a 1 -x {1.0 0.0 18 ------- null}
- -t 0.43752 -s 2 -d 0 -p ack -e 40 -c 1 -i 49 -a 1 -x {1.0 0.0 18 ------- null}
h -t 0.43752 -s 2 -d 0 -p ack -e 40 -c 1 -i 49 -a 1 -x {1.0 0.0 -1 ------- null}
r -t 0.43816 -s 0 -d 2 -p tcp -e 1040 -c 1 -i 39 -a 1 -x {0.0 1.0 24 ------- null}
+ -t 0.43816 -s 2 -d 1 -p tcp -e 1040 -c 1 -i 39 -a 1 -x {0.0 1.0 24 ------- null}
- -t 0.43816 -s 2 -d 1 -p tcp -e 1040 -c 1 -i 39 -a 1 -x {0.0 1.0 24 ------- null}